 Entering Gaussian System, Link 0=g09
 Initial command:
 /apps/gent/gengar/harpertown/software/Gaussian/g09_A.02-ictce-3.2.2.u2-amd64-gpfs/g09/l1.exe /tmp/3806899.master.gengar.gent.vsc/Gau-7863.inp -scrdir=/tmp/3806899.master.gengar.gent.vsc/
 Entering Link 1 = /apps/gent/gengar/harpertown/software/Gaussian/g09_A.02-ictce-3.2.2.u2-amd64-gpfs/g09/l1.exe PID=      7864.
  
 Copyright (c) 1988,1990,1992,1993,1995,1998,2003,2009, Gaussian, Inc.
                  All Rights Reserved.
  
 This is part of the Gaussian(R) 09 program.  It is based on
 the Gaussian(R) 03 system (copyright 2003, Gaussian, Inc.),
 the Gaussian(R) 98 system (copyright 1998, Gaussian, Inc.),
 the Gaussian(R) 94 system (copyright 1995, Gaussian, Inc.),
 the Gaussian 92(TM) system (copyright 1992, Gaussian, Inc.),
 the Gaussian 90(TM) system (copyright 1990, Gaussian, Inc.),
 the Gaussian 88(TM) system (copyright 1988, Gaussian, Inc.),
 the Gaussian 86(TM) system (copyright 1986, Carnegie Mellon
 University), and the Gaussian 82(TM) system (copyright 1983,
 Carnegie Mellon University). Gaussian is a federally registered
 trademark of Gaussian, Inc.
  
 This software contains proprietary and confidential information,
 including trade secrets, belonging to Gaussian, Inc.
  
 This software is provided under written license and may be
 used, copied, transmitted, or stored only in accord with that
 written license.
  
 The following legend is applicable only to US Government
 contracts under FAR:
  
                    RESTRICTED RIGHTS LEGEND
  
 Use, reproduction and disclosure by the US Government is
 subject to restrictions as set forth in subparagraphs (a)
 and (c) of the Commercial Computer Software - Restricted
 Rights clause in FAR 52.227-19.
  
 Gaussian, Inc.
 340 Quinnipiac St., Bldg. 40, Wallingford CT 06492
  
  
 ---------------------------------------------------------------
 Warning -- This program may not be used in any manner that
 competes with the business of Gaussian, Inc. or will provide
 assistance to any competitor of Gaussian, Inc.  The licensee
 of this program is prohibited from giving any competitor of
 Gaussian, Inc. access to this program.  By using this program,
 the user acknowledges that Gaussian, Inc. is engaged in the
 business of creating and licensing software in the field of
 computational chemistry and represents and warrants to the
 licensee that it is not a competitor of Gaussian, Inc. and that
 it will not use this program in any manner prohibited above.
 ---------------------------------------------------------------
  

 Cite this work as:
 Gaussian 09, Revision A.02,
 M. J. Frisch, G. W. Trucks, H. B. Schlegel, G. E. Scuseria, 
 M. A. Robb, J. R. Cheeseman, G. Scalmani, V. Barone, B. Mennucci, 
 G. A. Petersson, H. Nakatsuji, M. Caricato, X. Li, H. P. Hratchian, 
 A. F. Izmaylov, J. Bloino, G. Zheng, J. L. Sonnenberg, M. Hada, 
 M. Ehara, K. Toyota, R. Fukuda, J. Hasegawa, M. Ishida, T. Nakajima, 
 Y. Honda, O. Kitao, H. Nakai, T. Vreven, J. A. Montgomery, Jr., 
 J. E. Peralta, F. Ogliaro, M. Bearpark, J. J. Heyd, E. Brothers, 
 K. N. Kudin, V. N. Staroverov, R. Kobayashi, J. Normand, 
 K. Raghavachari, A. Rendell, J. C. Burant, S. S. Iyengar, J. Tomasi, 
 M. Cossi, N. Rega, J. M. Millam, M. Klene, J. E. Knox, J. B. Cross, 
 V. Bakken, C. Adamo, J. Jaramillo, R. Gomperts, R. E. Stratmann, 
 O. Yazyev, A. J. Austin, R. Cammi, C. Pomelli, J. W. Ochterski, 
 R. L. Martin, K. Morokuma, V. G. Zakrzewski, G. A. Voth, 
 P. Salvador, J. J. Dannenberg, S. Dapprich, A. D. Daniels, 
 O. Farkas, J. B. Foresman, J. V. Ortiz, J. Cioslowski, 
 and D. J. Fox, Gaussian, Inc., Wallingford CT, 2009.
 
 ******************************************
 Gaussian 09:  EM64L-G09RevA.02 11-Jun-2009
                 6-Nov-2012 
 ******************************************
 %nproc=8
 Will use up to    8 processors via shared memory.
 %mem=4GB
 ----------------------------------
 #m062x/6-31+g** gfinput iop(6/7=3)
 ----------------------------------
 1/38=1/1;
 2/12=2,17=6,18=5,40=1/2;
 3/5=1,6=6,7=111,11=2,16=1,24=10,25=1,30=1,74=-55/1,2,3;
 4//1;
 5/5=2,38=5/2;
 6/7=3,8=2,9=2,10=2,28=1/1;
 99/5=1,9=1/99;
 -------
 comment
 -------
 Symbolic Z-matrix:
 Charge =  0 Multiplicity = 1
 6                    0    -0.6953   -1.49698   0.09825 
 1                    0    -1.23965  -2.19812  -0.52897 
 1                    0    -1.13704  -1.26221   1.06241 
 7                    0    -0.0383   -0.38711  -0.6126 
 7                    0     0.74161  -1.48733  -0.06604 
 1                    0     1.22897  -1.20375   0.78633 
 17                   0    -0.02022   1.09629   0.48676 
 
                          Input orientation:                          
 ---------------------------------------------------------------------
 Center     Atomic      Atomic             Coordinates (Angstroms)
 Number     Number       Type             X           Y           Z
 ---------------------------------------------------------------------
      1          6           0       -0.695302   -1.496978    0.098251
      2          1           0       -1.239646   -2.198120   -0.528971
      3          1           0       -1.137039   -1.262210    1.062406
      4          7           0       -0.038301   -0.387106   -0.612600
      5          7           0        0.741613   -1.487326   -0.066039
      6          1           0        1.228966   -1.203748    0.786325
      7         17           0       -0.020223    1.096290    0.486755
 ---------------------------------------------------------------------
                    Distance matrix (angstroms):
                    1          2          3          4          5
     1  C    0.000000
     2  H    1.086885   0.000000
     3  H    1.086206   1.849037   0.000000
     4  N    1.472676   2.174855   2.186019   0.000000
     5  N    1.446309   2.155208   2.203043   1.455156   0.000000
     6  H    2.064519   2.968640   2.382775   2.056663   1.021985
     7  Cl   2.707712   3.656751   2.672298   1.846448   2.749736
                    6          7
     6  H    0.000000
     7  Cl   2.634462   0.000000
 Stoichiometry    CH3ClN2
 Framework group  C1[X(CH3ClN2)]
 Deg. of freedom    15
 Full point group                 C1      NOp   1
 Largest Abelian subgroup         C1      NOp   1
 Largest concise Abelian subgroup C1      NOp   1
                         Standard orientation:                         
 ---------------------------------------------------------------------
 Center     Atomic      Atomic             Coordinates (Angstroms)
 Number     Number       Type             X           Y           Z
 ---------------------------------------------------------------------
      1          6           0        1.284502    0.672624   -0.175586
      2          1           0        2.106295    1.167892    0.334986
      3          1           0        0.865858    1.186508   -1.036111
      4          7           0        0.331999   -0.037264    0.694800
      5          7           0        1.286792   -0.772642   -0.120718
      6          1           0        0.829076   -1.193693   -0.931683
      7         17           0       -1.343516    0.027817   -0.078367
 ---------------------------------------------------------------------
 Rotational constants (GHZ):     18.3422799      4.1123697      3.8488379
 Standard basis: 6-31+G(d,p) (6D, 7F)
 AO basis set in the form of general basis input (Overlap normalization):
      1 0
 S   6 1.00       0.000000000000
      0.3047524880D+04  0.1834737132D-02
      0.4573695180D+03  0.1403732281D-01
      0.1039486850D+03  0.6884262226D-01
      0.2921015530D+02  0.2321844432D+00
      0.9286662960D+01  0.4679413484D+00
      0.3163926960D+01  0.3623119853D+00
 SP   3 1.00       0.000000000000
      0.7868272350D+01 -0.1193324198D+00  0.6899906659D-01
      0.1881288540D+01 -0.1608541517D+00  0.3164239610D+00
      0.5442492580D+00  0.1143456438D+01  0.7443082909D+00
 SP   1 1.00       0.000000000000
      0.1687144782D+00  0.1000000000D+01  0.1000000000D+01
 SP   1 1.00       0.000000000000
      0.4380000000D-01  0.1000000000D+01  0.1000000000D+01
 D   1 1.00       0.000000000000
      0.8000000000D+00  0.1000000000D+01
 ****
      2 0
 S   3 1.00       0.000000000000
      0.1873113696D+02  0.3349460434D-01
      0.2825394365D+01  0.2347269535D+00
      0.6401216923D+00  0.8137573261D+00
 S   1 1.00       0.000000000000
      0.1612777588D+00  0.1000000000D+01
 P   1 1.00       0.000000000000
      0.1100000000D+01  0.1000000000D+01
 ****
      3 0
 S   3 1.00       0.000000000000
      0.1873113696D+02  0.3349460434D-01
      0.2825394365D+01  0.2347269535D+00
      0.6401216923D+00  0.8137573261D+00
 S   1 1.00       0.000000000000
      0.1612777588D+00  0.1000000000D+01
 P   1 1.00       0.000000000000
      0.1100000000D+01  0.1000000000D+01
 ****
      4 0
 S   6 1.00       0.000000000000
      0.4173511460D+04  0.1834772160D-02
      0.6274579110D+03  0.1399462700D-01
      0.1429020930D+03  0.6858655181D-01
      0.4023432930D+02  0.2322408730D+00
      0.1282021290D+02  0.4690699481D+00
      0.4390437010D+01  0.3604551991D+00
 SP   3 1.00       0.000000000000
      0.1162636186D+02 -0.1149611817D+00  0.6757974388D-01
      0.2716279807D+01 -0.1691174786D+00  0.3239072959D+00
      0.7722183966D+00  0.1145851947D+01  0.7408951398D+00
 SP   1 1.00       0.000000000000
      0.2120314975D+00  0.1000000000D+01  0.1000000000D+01
 SP   1 1.00       0.000000000000
      0.6390000000D-01  0.1000000000D+01  0.1000000000D+01
 D   1 1.00       0.000000000000
      0.8000000000D+00  0.1000000000D+01
 ****
      5 0
 S   6 1.00       0.000000000000
      0.4173511460D+04  0.1834772160D-02
      0.6274579110D+03  0.1399462700D-01
      0.1429020930D+03  0.6858655181D-01
      0.4023432930D+02  0.2322408730D+00
      0.1282021290D+02  0.4690699481D+00
      0.4390437010D+01  0.3604551991D+00
 SP   3 1.00       0.000000000000
      0.1162636186D+02 -0.1149611817D+00  0.6757974388D-01
      0.2716279807D+01 -0.1691174786D+00  0.3239072959D+00
      0.7722183966D+00  0.1145851947D+01  0.7408951398D+00
 SP   1 1.00       0.000000000000
      0.2120314975D+00  0.1000000000D+01  0.1000000000D+01
 SP   1 1.00       0.000000000000
      0.6390000000D-01  0.1000000000D+01  0.1000000000D+01
 D   1 1.00       0.000000000000
      0.8000000000D+00  0.1000000000D+01
 ****
      6 0
 S   3 1.00       0.000000000000
      0.1873113696D+02  0.3349460434D-01
      0.2825394365D+01  0.2347269535D+00
      0.6401216923D+00  0.8137573261D+00
 S   1 1.00       0.000000000000
      0.1612777588D+00  0.1000000000D+01
 P   1 1.00       0.000000000000
      0.1100000000D+01  0.1000000000D+01
 ****
      7 0
 S   6 1.00       0.000000000000
      0.2518010000D+05  0.1832959848D-02
      0.3780350000D+04  0.1403419883D-01
      0.8604740000D+03  0.6909739426D-01
      0.2421450000D+03  0.2374519803D+00
      0.7733490000D+02  0.4830339599D+00
      0.2624700000D+02  0.3398559718D+00
 SP   6 1.00       0.000000000000
      0.4917650000D+03 -0.2297391417D-02  0.3989400879D-02
      0.1169840000D+03 -0.3071371894D-01  0.3031770668D-01
      0.3741530000D+02 -0.1125280694D+00  0.1298800286D+00
      0.1378340000D+02  0.4501632776D-01  0.3279510723D+00
      0.5452150000D+01  0.5893533634D+00  0.4535271000D+00
      0.2225880000D+01  0.4652062868D+00  0.2521540556D+00
 SP   3 1.00       0.000000000000
      0.3186490000D+01 -0.2518280280D+00 -0.1429931472D-01
      0.1144270000D+01  0.6158925141D-01  0.3235723331D+00
      0.4203770000D+00  0.1060184328D+01  0.7435077653D+00
 SP   1 1.00       0.000000000000
      0.1426570000D+00  0.1000000000D+01  0.1000000000D+01
 SP   1 1.00       0.000000000000
      0.4830000000D-01  0.1000000000D+01  0.1000000000D+01
 D   1 1.00       0.000000000000
      0.7500000000D+00  0.1000000000D+01
 ****

 There are    95 symmetry adapted basis functions of A   symmetry.
 Integral buffers will be    131072 words long.
 Raffenetti 2 integral format.
 Two-electron integral symmetry is turned on.
    95 basis functions,   173 primitive gaussians,    95 cartesian basis functions
    20 alpha electrons       20 beta electrons
       nuclear repulsion energy       154.7514039563 Hartrees.
 NAtoms=    7 NActive=    7 NUniq=    7 SFac= 7.50D-01 NAtFMM=   80 NAOKFM=F Big=F
 One-electron integrals computed using PRISM.
 NBasis=    95 RedAO= T  NBF=    95
 NBsUse=    95 1.00D-06 NBFU=    95
 Harris functional with IExCor= 1009 diagonalized for initial guess.
 ExpMin= 4.38D-02 ExpMax= 2.52D+04 ExpMxC= 3.78D+03 IAcc=2 IRadAn=         0 AccDes= 0.00D+00
 HarFok:  IExCor= 1009 AccDes= 0.00D+00 IRadAn=         0 IDoV= 1
 ScaDFX=  1.000000  1.000000  1.000000  1.000000
 FoFCou: FMM=F IPFlag=           0 FMFlag=      100000 FMFlg1=           0
         NFxFlg=           0 DoJE=T BraDBF=F KetDBF=T FulRan=T
         Omega=  0.000000  0.000000  1.000000  0.000000  0.000000 ICntrl=     500 IOpCl=  0
         NMat0=    1 NMatS0=    1 NMatT0=    0 NMatD0=    1 NMtDS0=    0 NMtDT0=    0
         I1Cent=           4 NGrid=           0.
 Petite list used in FoFCou.
 Initial guess orbital symmetries:
       Occupied  (A) (A) (A) (A) (A) (A) (A) (A) (A) (A) (A) (A)
                 (A) (A) (A) (A) (A) (A) (A) (A)
       Virtual   (A) (A) (A) (A) (A) (A) (A) (A) (A) (A) (A) (A)
                 (A) (A) (A) (A) (A) (A) (A) (A) (A) (A) (A) (A)
                 (A) (A) (A) (A) (A) (A) (A) (A) (A) (A) (A) (A)
                 (A) (A) (A) (A) (A) (A) (A) (A) (A) (A) (A) (A)
                 (A) (A) (A) (A) (A) (A) (A) (A) (A) (A) (A) (A)
                 (A) (A) (A) (A) (A) (A) (A) (A) (A) (A) (A) (A)
                 (A) (A) (A)
 The electronic state of the initial guess is 1-A.
 Requested convergence on RMS density matrix=1.00D-08 within 128 cycles.
 Requested convergence on MAX density matrix=1.00D-06.
 Requested convergence on             energy=1.00D-06.
 No special actions if energy rises.
 Keep R1 ints in memory in canonical form, NReq=11420021.
 SCF Done:  E(RM062X) =  -609.404366148     A.U. after   13 cycles
             Convg  =    0.9156D-08             -V/T =  2.0042

 **********************************************************************

            Population analysis using the SCF density.

 **********************************************************************

 Orbital symmetries:
       Occupied  (A) (A) (A) (A) (A) (A) (A) (A) (A) (A) (A) (A)
                 (A) (A) (A) (A) (A) (A) (A) (A)
       Virtual   (A) (A) (A) (A) (A) (A) (A) (A) (A) (A) (A) (A)
                 (A) (A) (A) (A) (A) (A) (A) (A) (A) (A) (A) (A)
                 (A) (A) (A) (A) (A) (A) (A) (A) (A) (A) (A) (A)
                 (A) (A) (A) (A) (A) (A) (A) (A) (A) (A) (A) (A)
                 (A) (A) (A) (A) (A) (A) (A) (A) (A) (A) (A) (A)
                 (A) (A) (A) (A) (A) (A) (A) (A) (A) (A) (A) (A)
                 (A) (A) (A)
 The electronic state is 1-A.
 Alpha  occ. eigenvalues -- -102.68778 -14.88263 -14.82840 -10.63791  -9.83297
 Alpha  occ. eigenvalues --   -7.55778  -7.54970  -7.54944  -1.19439  -0.94646
 Alpha  occ. eigenvalues --   -0.81826  -0.75769  -0.63218  -0.56669  -0.49274
 Alpha  occ. eigenvalues --   -0.46979  -0.43912  -0.39718  -0.37255  -0.33327
 Alpha virt. eigenvalues --   -0.03302   0.01759   0.02899   0.04321   0.04769
 Alpha virt. eigenvalues --    0.08851   0.09499   0.09762   0.11487   0.12796
 Alpha virt. eigenvalues --    0.13694   0.14589   0.16700   0.17569   0.19638
 Alpha virt. eigenvalues --    0.23906   0.24618   0.25586   0.26368   0.27285
 Alpha virt. eigenvalues --    0.30338   0.32311   0.36600   0.58393   0.60861
 Alpha virt. eigenvalues --    0.64196   0.64424   0.67300   0.73296   0.76230
 Alpha virt. eigenvalues --    0.79572   0.86524   0.87380   0.91027   0.92864
 Alpha virt. eigenvalues --    0.94193   0.95916   1.00970   1.02324   1.03567
 Alpha virt. eigenvalues --    1.05999   1.12244   1.14293   1.15222   1.20791
 Alpha virt. eigenvalues --    1.37518   1.42056   1.47569   1.59385   1.69080
 Alpha virt. eigenvalues --    1.79210   1.84953   1.93652   1.97619   2.04157
 Alpha virt. eigenvalues --    2.11822   2.16816   2.23465   2.33051   2.38528
 Alpha virt. eigenvalues --    2.40216   2.57079   2.65203   2.69824   2.75856
 Alpha virt. eigenvalues --    2.82440   2.84456   2.88794   3.26873   3.39290
 Alpha virt. eigenvalues --    3.45690   3.98156   4.10726   4.38670   4.44818
     Molecular Orbital Coefficients:
                           1         2         3         4         5
                           O         O         O         O         O
     Eigenvalues --  -102.68778 -14.88263 -14.82840 -10.63791  -9.83297
   1 1   C  1S         -0.00001  -0.00001   0.00000   0.99416   0.00001
   2        2S          0.00000   0.00020   0.00026   0.04150  -0.00005
   3        2PX         0.00003  -0.00022   0.00002  -0.00059  -0.00001
   4        2PY         0.00001  -0.00013  -0.00025  -0.00121   0.00005
   5        2PZ        -0.00001   0.00017   0.00001   0.00048   0.00009
   6        3S          0.00000   0.00213   0.00160  -0.01625  -0.00094
   7        3PX        -0.00001  -0.00077  -0.00015   0.00131  -0.00023
   8        3PY        -0.00003  -0.00023  -0.00081   0.00223  -0.00033
   9        3PZ        -0.00005   0.00040  -0.00039  -0.00090  -0.00052
  10        4S          0.00013   0.00107   0.00156  -0.00400  -0.00504
  11        4PX        -0.00003  -0.00029  -0.00013   0.00020   0.00201
  12        4PY        -0.00003  -0.00009  -0.00060   0.00064   0.00040
  13        4PZ        -0.00001   0.00027   0.00000  -0.00028  -0.00020
  14        5XX        -0.00004   0.00003  -0.00006  -0.00669   0.00016
  15        5YY        -0.00002  -0.00013  -0.00016  -0.00640   0.00002
  16        5ZZ        -0.00002  -0.00006   0.00001  -0.00666  -0.00001
  17        5XY        -0.00001  -0.00002   0.00001   0.00015   0.00001
  18        5XZ         0.00000   0.00011   0.00009  -0.00003   0.00002
  19        5YZ         0.00000   0.00000   0.00004  -0.00018  -0.00003
  20 2   H  1S          0.00001  -0.00010  -0.00006   0.00007   0.00007
  21        2S          0.00004  -0.00020   0.00000   0.00159   0.00029
  22        3PX        -0.00001   0.00009   0.00002   0.00006   0.00000
  23        3PY         0.00000   0.00005   0.00009  -0.00004   0.00002
  24        3PZ        -0.00001  -0.00003   0.00001   0.00012   0.00001
  25 3   H  1S         -0.00001  -0.00013  -0.00012   0.00009  -0.00013
  26        2S         -0.00004  -0.00035  -0.00048   0.00157  -0.00006
  27        3PX         0.00002   0.00003   0.00001  -0.00013  -0.00001
  28        3PY         0.00001   0.00006   0.00011  -0.00003   0.00000
  29        3PZ         0.00000  -0.00007  -0.00002  -0.00010   0.00003
  30 4   N  1S         -0.00001   0.99411  -0.00255  -0.00008   0.00006
  31        2S          0.00000   0.02940   0.00017   0.00023   0.00053
  32        2PX        -0.00005   0.00029   0.00017  -0.00002  -0.00005
  33        2PY         0.00000  -0.00001  -0.00013  -0.00006   0.00001
  34        2PZ        -0.00001  -0.00249  -0.00014   0.00007  -0.00002
  35        3S          0.00009  -0.00066   0.00038   0.00129  -0.00141
  36        3PX         0.00002  -0.00063   0.00000   0.00043  -0.00002
  37        3PY         0.00000  -0.00011  -0.00044   0.00088   0.00010
  38        3PZ        -0.00009   0.00272  -0.00028  -0.00067   0.00015
  39        4S          0.00026  -0.00446   0.00261   0.00644   0.01344
  40        4PX         0.00002  -0.00010   0.00034   0.00113   0.00081
  41        4PY        -0.00003   0.00000  -0.00022   0.00059  -0.00069
  42        4PZ        -0.00005   0.00023  -0.00085  -0.00206  -0.00429
  43        5XX         0.00000  -0.00584  -0.00006  -0.00015  -0.00024
  44        5YY        -0.00001  -0.00586  -0.00001  -0.00004   0.00026
  45        5ZZ         0.00000  -0.00589   0.00001  -0.00013   0.00010
  46        5XY         0.00000  -0.00003   0.00003  -0.00019   0.00005
  47        5XZ        -0.00002   0.00005   0.00010   0.00033  -0.00027
  48        5YZ         0.00000   0.00001   0.00004   0.00015   0.00001
  49 5   N  1S          0.00000   0.00249   0.99404  -0.00009  -0.00002
  50        2S          0.00000   0.00027   0.02957   0.00020  -0.00012
  51        2PX         0.00002  -0.00018  -0.00157   0.00000   0.00004
  52        2PY        -0.00001   0.00014   0.00129  -0.00011   0.00000
  53        2PZ         0.00000   0.00013  -0.00068   0.00006   0.00000
  54        3S         -0.00004   0.00098  -0.00048   0.00164   0.00008
  55        3PX         0.00004  -0.00076   0.00148   0.00017  -0.00019
  56        3PY        -0.00001  -0.00015  -0.00168   0.00085   0.00010
  57        3PZ         0.00000   0.00001   0.00042  -0.00068   0.00019
  58        4S         -0.00028   0.00209  -0.00419   0.00319  -0.00826
  59        4PX         0.00004  -0.00045   0.00013  -0.00019   0.00252
  60        4PY        -0.00006   0.00046  -0.00035   0.00143  -0.00095
  61        4PZ        -0.00002   0.00025  -0.00013  -0.00050  -0.00081
  62        5XX        -0.00003   0.00003  -0.00586   0.00006   0.00005
  63        5YY        -0.00001  -0.00015  -0.00588  -0.00055  -0.00006
  64        5ZZ        -0.00001  -0.00003  -0.00573   0.00015  -0.00010
  65        5XY         0.00001   0.00007   0.00006   0.00006  -0.00005
  66        5XZ         0.00001   0.00012   0.00008   0.00006   0.00000
  67        5YZ         0.00000   0.00001   0.00013   0.00001   0.00005
  68 6   H  1S         -0.00001  -0.00019   0.00018  -0.00003  -0.00013
  69        2S          0.00002  -0.00044   0.00067  -0.00120   0.00050
  70        3PX         0.00002  -0.00002  -0.00019  -0.00002  -0.00002
  71        3PY        -0.00001  -0.00004  -0.00005   0.00002   0.00003
  72        3PZ         0.00000  -0.00007  -0.00024  -0.00001   0.00005
  73 7   Cl 1S          0.99592   0.00000   0.00000   0.00000  -0.28542
  74        2S          0.01544  -0.00004   0.00000   0.00000   1.02452
  75        2PX         0.00004  -0.00007   0.00002   0.00001   0.00451
  76        2PY         0.00000   0.00000  -0.00001   0.00001  -0.00010
  77        2PZ         0.00001  -0.00003   0.00000   0.00000   0.00157
  78        3S         -0.02117  -0.00031   0.00006   0.00007   0.06589
  79        3PX        -0.00002   0.00026  -0.00009  -0.00008   0.00106
  80        3PY         0.00000  -0.00001   0.00005  -0.00005   0.00001
  81        3PZ         0.00000   0.00010   0.00001   0.00001   0.00026
  82        4S          0.00185   0.00118  -0.00031  -0.00095  -0.01802
  83        4PX        -0.00005   0.00070  -0.00009  -0.00024  -0.00194
  84        4PY         0.00000  -0.00001  -0.00008   0.00016  -0.00011
  85        4PZ        -0.00001   0.00001  -0.00007  -0.00014  -0.00029
  86        5S         -0.00036   0.00016  -0.00064  -0.00077   0.00612
  87        5PX        -0.00002  -0.00014  -0.00027  -0.00054   0.00176
  88        5PY         0.00000  -0.00003   0.00001  -0.00014   0.00031
  89        5PZ         0.00000   0.00027   0.00009   0.00033   0.00001
  90        6XX         0.00755   0.00036  -0.00006   0.00003  -0.01377
  91        6YY         0.00756  -0.00003  -0.00003  -0.00004  -0.01446
  92        6ZZ         0.00757  -0.00007  -0.00002  -0.00003  -0.01429
  93        6XY         0.00000  -0.00002  -0.00001   0.00004  -0.00005
  94        6XZ         0.00000   0.00008  -0.00001  -0.00004   0.00036
  95        6YZ         0.00000   0.00000   0.00002  -0.00004   0.00000
                           6         7         8         9        10
                           O         O         O         O         O
     Eigenvalues --    -7.55778  -7.54970  -7.54944  -1.19439  -0.94646
   1 1   C  1S         -0.00004   0.00001  -0.00003  -0.09171   0.03192
   2        2S         -0.00037   0.00011  -0.00022   0.17125  -0.06442
   3        2PX        -0.00012   0.00005  -0.00004  -0.05092  -0.02815
   4        2PY         0.00006   0.00001  -0.00002  -0.10748   0.05641
   5        2PZ         0.00000  -0.00005   0.00011   0.04141   0.00416
   6        3S          0.00135  -0.00044   0.00080   0.05399  -0.05007
   7        3PX        -0.00138   0.00025  -0.00080   0.00171   0.00107
   8        3PY        -0.00035  -0.00006  -0.00022   0.00702   0.00012
   9        3PZ         0.00014  -0.00041  -0.00015  -0.00653  -0.00300
  10        4S          0.00653   0.00212  -0.00318   0.03940  -0.04074
  11        4PX        -0.00146  -0.00004   0.00142  -0.00596   0.00306
  12        4PY        -0.00181  -0.00119  -0.00016  -0.01429   0.01218
  13        4PZ         0.00091  -0.00076  -0.00036   0.00524  -0.00710
  14        5XX         0.00032  -0.00012   0.00015  -0.00584   0.00712
  15        5YY        -0.00007   0.00000  -0.00008   0.01187  -0.00940
  16        5ZZ        -0.00013   0.00001  -0.00006  -0.00689   0.00319
  17        5XY         0.00006  -0.00006   0.00005   0.01057   0.00025
  18        5XZ         0.00001  -0.00001  -0.00003  -0.00654  -0.00236
  19        5YZ        -0.00005   0.00001  -0.00002  -0.00919   0.00090
  20 2   H  1S         -0.00002   0.00001   0.00002   0.02637  -0.01745
  21        2S          0.00047   0.00043   0.00027   0.00754  -0.00351
  22        3PX         0.00006  -0.00004   0.00003  -0.00316   0.00051
  23        3PY         0.00001  -0.00003   0.00000  -0.00249   0.00124
  24        3PZ         0.00000  -0.00001  -0.00001  -0.00124   0.00104
  25 3   H  1S         -0.00004   0.00003  -0.00017   0.02776  -0.00675
  26        2S         -0.00071  -0.00028   0.00034   0.00509   0.00320
  27        3PX        -0.00002   0.00004  -0.00008   0.00080  -0.00096
  28        3PY         0.00001   0.00004  -0.00005  -0.00246   0.00085
  29        3PZ         0.00000  -0.00002   0.00006   0.00305  -0.00017
  30 4   N  1S          0.00015  -0.00006   0.00004  -0.13213  -0.05423
  31        2S          0.00128  -0.00028   0.00014   0.27177   0.10849
  32        2PX        -0.00018   0.00000   0.00002   0.07922  -0.13452
  33        2PY         0.00001   0.00004   0.00006  -0.01438   0.02646
  34        2PZ        -0.00017   0.00009  -0.00005  -0.11538  -0.01063
  35        3S         -0.00339   0.00183  -0.00094   0.27226   0.17974
  36        3PX         0.00094   0.00061  -0.00036   0.01671  -0.05137
  37        3PY         0.00007  -0.00030  -0.00014   0.00355   0.00597
  38        3PZ         0.00230  -0.00077   0.00033  -0.05623  -0.03986
  39        4S         -0.00024   0.00170  -0.00005  -0.07955   0.01363
  40        4PX        -0.00606  -0.00110   0.00170  -0.00266   0.03152
  41        4PY        -0.00013   0.00101   0.00083   0.00080   0.00196
  42        4PZ        -0.00152  -0.00037   0.00018   0.02285   0.00025
  43        5XX        -0.00073  -0.00018   0.00015   0.00343   0.00405
  44        5YY         0.00067  -0.00013   0.00008  -0.01448  -0.00689
  45        5ZZ         0.00019   0.00000  -0.00001   0.00182  -0.00352
  46        5XY         0.00009   0.00002   0.00006  -0.00395   0.00139
  47        5XZ        -0.00065  -0.00005   0.00003  -0.01301   0.01767
  48        5YZ         0.00002   0.00009   0.00010   0.00430  -0.00400
  49 5   N  1S         -0.00009   0.00005  -0.00001  -0.12872   0.07852
  50        2S         -0.00045   0.00026  -0.00004   0.26470  -0.16608
  51        2PX         0.00004  -0.00007  -0.00004  -0.08180   0.00146
  52        2PY        -0.00002  -0.00002  -0.00001   0.10480  -0.03740
  53        2PZ         0.00000  -0.00003   0.00003   0.02071   0.02625
  54        3S          0.00204  -0.00134   0.00028   0.23223  -0.21343
  55        3PX        -0.00118   0.00116   0.00004  -0.02164   0.01693
  56        3PY         0.00050  -0.00035   0.00012   0.04053  -0.02685
  57        3PZ         0.00021  -0.00021   0.00005  -0.00096   0.00973
  58        4S          0.00051  -0.00152  -0.00045  -0.02261   0.00203
  59        4PX         0.00000  -0.00046  -0.00035  -0.00211   0.00224
  60        4PY         0.00059  -0.00099  -0.00066  -0.01184   0.00444
  61        4PZ         0.00136   0.00064   0.00003  -0.00086  -0.00024
  62        5XX         0.00010  -0.00010  -0.00001  -0.00372   0.00844
  63        5YY        -0.00021   0.00011   0.00002   0.00451  -0.00184
  64        5ZZ        -0.00031   0.00013  -0.00002  -0.00980   0.00353
  65        5XY        -0.00010   0.00010  -0.00001  -0.01302  -0.00001
  66        5XZ         0.00001   0.00003   0.00000  -0.00663  -0.00120
  67        5YZ         0.00008  -0.00005   0.00002   0.00801  -0.00221
  68 6   H  1S         -0.00021   0.00013   0.00004   0.06391  -0.05325
  69        2S          0.00006   0.00014  -0.00014   0.00136   0.00309
  70        3PX        -0.00004   0.00009  -0.00001   0.00332  -0.00351
  71        3PY         0.00000  -0.00005  -0.00001   0.00524  -0.00289
  72        3PZ         0.00004  -0.00003  -0.00001   0.00792  -0.00435
  73 7   Cl 1S          0.00148  -0.00012   0.00010   0.01200   0.07107
  74        2S         -0.00543   0.00042  -0.00032  -0.05428  -0.32157
  75        2PX         0.90079  -0.32822   0.25592  -0.01995  -0.02975
  76        2PY        -0.02795   0.56141   0.81860   0.00099  -0.00007
  77        2PZ         0.41496   0.75042  -0.50047  -0.00528  -0.01267
  78        3S          0.00100  -0.00007   0.00014   0.10080   0.63809
  79        3PX         0.02321  -0.00758   0.00589   0.04303   0.06923
  80        3PY        -0.00073   0.01279   0.01859  -0.00213   0.00021
  81        3PZ         0.01056   0.01706  -0.01136   0.01135   0.03001
  82        4S         -0.00029  -0.00021  -0.00037   0.02587   0.24882
  83        4PX        -0.00836   0.00249  -0.00209  -0.00338   0.00202
  84        4PY         0.00024  -0.00452  -0.00660  -0.00042   0.00102
  85        4PZ        -0.00380  -0.00602   0.00402  -0.00297  -0.00430
  86        5S         -0.00789  -0.00224   0.00349   0.01911   0.02778
  87        5PX        -0.00006  -0.00185   0.00214   0.01286   0.01194
  88        5PY        -0.00019   0.00157   0.00259  -0.00065  -0.00118
  89        5PZ         0.00021   0.00194  -0.00108   0.00208   0.00830
  90        6XX         0.00062  -0.00024   0.00018   0.01088   0.01697
  91        6YY        -0.00042   0.00000   0.00002  -0.00483  -0.01306
  92        6ZZ        -0.00029   0.00016  -0.00007  -0.00303  -0.00689
  93        6XY        -0.00006   0.00019   0.00026  -0.00088  -0.00047
  94        6XZ         0.00048   0.00021  -0.00014   0.00548   0.01530
  95        6YZ        -0.00001   0.00005   0.00009  -0.00025  -0.00007
                          11        12        13        14        15
                           O         O         O         O         O
     Eigenvalues --    -0.81826  -0.75769  -0.63218  -0.56669  -0.49274
   1 1   C  1S          0.07133  -0.15278   0.01529  -0.00735   0.00971
   2        2S         -0.14683   0.30679  -0.02155   0.00587  -0.02600
   3        2PX         0.05992   0.07295   0.14839   0.26438  -0.02956
   4        2PY        -0.05166   0.07181  -0.16830   0.22845  -0.16558
   5        2PZ        -0.09458  -0.07708   0.18782   0.12489   0.20047
   6        3S         -0.14842   0.35255  -0.02740   0.03870   0.01858
   7        3PX         0.00536  -0.01169   0.07153   0.13713  -0.03285
   8        3PY        -0.00083   0.00307  -0.04208   0.08687  -0.08670
   9        3PZ        -0.01272  -0.02567   0.08249   0.08674   0.07884
  10        4S         -0.03401   0.02577   0.08966   0.03486   0.07162
  11        4PX         0.00990  -0.00181  -0.00840   0.00967  -0.02604
  12        4PY         0.00102   0.00038  -0.02514  -0.00574  -0.02392
  13        4PZ        -0.00828  -0.00475   0.02185   0.01466   0.00830
  14        5XX        -0.00360  -0.00585  -0.00884   0.00346   0.00544
  15        5YY         0.01393  -0.00355   0.01388  -0.01220   0.00105
  16        5ZZ        -0.00476  -0.00463  -0.00219   0.00781  -0.00103
  17        5XY        -0.00689  -0.00351  -0.00232  -0.00720  -0.00179
  18        5XZ         0.00650   0.01192  -0.00164   0.00588  -0.01563
  19        5YZ         0.01169   0.00243  -0.00949   0.00768   0.00935
  20 2   H  1S         -0.06012   0.14340   0.04478   0.21125  -0.01772
  21        2S         -0.01908   0.06344   0.00945   0.10187  -0.00863
  22        3PX         0.00453  -0.00679  -0.00053  -0.00690   0.00013
  23        3PY         0.00079  -0.00350  -0.00266  -0.00323  -0.00168
  24        3PZ         0.00135  -0.00625   0.00001  -0.00475   0.00289
  25 3   H  1S         -0.04121   0.15201  -0.15836  -0.04432  -0.16510
  26        2S         -0.01201   0.04642  -0.07898  -0.00881  -0.14758
  27        3PX        -0.00032   0.00563  -0.00316   0.00138  -0.00413
  28        3PY         0.00034  -0.00354   0.00323   0.00265   0.00314
  29        3PZ        -0.00335   0.00716  -0.00727  -0.00029  -0.00469
  30 4   N  1S          0.09939   0.10202   0.03464  -0.04679  -0.00673
  31        2S         -0.22020  -0.22489  -0.06272   0.09699   0.01515
  32        2PX        -0.05867   0.01297   0.21952  -0.12030  -0.06557
  33        2PY        -0.11530   0.10848  -0.06036  -0.05437   0.39388
  34        2PZ         0.00745  -0.00570   0.04109   0.23422   0.03029
  35        3S         -0.30996  -0.33833  -0.15102   0.19529   0.02021
  36        3PX        -0.03153   0.00626   0.10922  -0.05944  -0.04575
  37        3PY        -0.03984   0.04060  -0.02916  -0.02673   0.22316
  38        3PZ         0.02921   0.02938   0.05445   0.10954   0.02527
  39        4S          0.01619   0.00418  -0.04903  -0.00945   0.04577
  40        4PX         0.02321  -0.00535  -0.05101   0.00915   0.01736
  41        4PY         0.00882  -0.01134  -0.00484  -0.00646  -0.01575
  42        4PZ        -0.00322  -0.00251   0.00018   0.00332  -0.01900
  43        5XX        -0.00127   0.00153   0.01637   0.00967   0.00488
  44        5YY         0.00715   0.00563   0.00040   0.01005  -0.00366
  45        5ZZ         0.00922   0.00795  -0.00954  -0.02868  -0.00282
  46        5XY        -0.00749   0.00803  -0.00384   0.00120   0.00971
  47        5XZ         0.00408  -0.00240  -0.01831   0.01520   0.00566
  48        5YZ         0.01382  -0.01263   0.00552   0.00563  -0.02715
  49 5   N  1S         -0.12959   0.00610  -0.02603  -0.02888  -0.00659
  50        2S          0.27430  -0.01511   0.06638   0.05519   0.01713
  51        2PX        -0.03124   0.11452   0.12104   0.07293   0.18317
  52        2PY        -0.10817   0.07924   0.16717  -0.24547   0.03105
  53        2PZ        -0.15771  -0.10003   0.22024   0.00826  -0.26736
  54        3S          0.39837  -0.01406   0.09490   0.12294   0.00153
  55        3PX        -0.04452   0.04098   0.06123   0.03198   0.11199
  56        3PY        -0.00438   0.03126   0.06749  -0.11243   0.00523
  57        3PZ        -0.06248  -0.03335   0.10416   0.00724  -0.14024
  58        4S          0.02520  -0.01504  -0.02735  -0.02758  -0.10985
  59        4PX        -0.00563  -0.00233  -0.00024  -0.00273   0.02030
  60        4PY         0.00102  -0.00445  -0.01227  -0.01491  -0.00979
  61        4PZ        -0.00742   0.00151   0.00343  -0.00543  -0.01611
  62        5XX        -0.00580  -0.01303  -0.01064  -0.00102  -0.01845
  63        5YY        -0.01497   0.01434   0.01400  -0.01480   0.00986
  64        5ZZ        -0.00084  -0.00211  -0.00449   0.01008   0.00500
  65        5XY         0.00805   0.00727   0.00052   0.02224   0.00779
  66        5XZ         0.01012   0.00890  -0.01403  -0.00239   0.01665
  67        5YZ        -0.00196  -0.01050   0.01108   0.00884  -0.00455
  68 6   H  1S          0.18601  -0.00571  -0.14396   0.07481   0.08915
  69        2S          0.03204  -0.00132  -0.07033   0.04558   0.06021
  70        3PX         0.00847   0.00212  -0.00314   0.00354   0.00787
  71        3PY         0.00517   0.00150  -0.00239  -0.00432   0.00398
  72        3PZ         0.01186  -0.00293  -0.00571   0.00412  -0.00118
  73 7   Cl 1S          0.02931   0.02249   0.02354  -0.00440  -0.00173
  74        2S         -0.13324  -0.10250  -0.10661   0.02019   0.00868
  75        2PX         0.01970   0.03101   0.08816  -0.01298  -0.02357
  76        2PY         0.00719  -0.00992   0.00293   0.01568  -0.07513
  77        2PZ         0.01218   0.02060   0.02510  -0.05090  -0.03741
  78        3S          0.27075   0.21098   0.23009  -0.04404  -0.01660
  79        3PX        -0.04571  -0.07371  -0.21720   0.03253   0.06129
  80        3PY        -0.01711   0.02395  -0.00749  -0.03970   0.19216
  81        3PZ        -0.02863  -0.04941  -0.06178   0.12806   0.09562
  82        4S          0.14544   0.13028   0.15389  -0.03110  -0.02423
  83        4PX         0.00327  -0.00290  -0.05164   0.00422   0.00836
  84        4PY        -0.00695   0.00707  -0.00250  -0.01460   0.08669
  85        4PZ        -0.00529  -0.00886  -0.00922   0.04791   0.03917
  86        5S          0.01780  -0.02042  -0.05002   0.01278  -0.03052
  87        5PX         0.00198  -0.01242  -0.02127   0.00657  -0.00913
  88        5PY         0.00118   0.00282   0.00091   0.00094   0.00202
  89        5PZ         0.00362  -0.00308  -0.01088   0.00430   0.00709
  90        6XX        -0.00529  -0.00954  -0.02427   0.00047   0.00711
  91        6YY        -0.00007   0.00182   0.00722  -0.00140  -0.00346
  92        6ZZ        -0.00195  -0.00145   0.00252   0.00647   0.00207
  93        6XY        -0.00465   0.00501  -0.00112  -0.00477   0.01665
  94        6XZ        -0.00454  -0.00919  -0.01208   0.01591   0.00885
  95        6YZ        -0.00042   0.00127   0.00000  -0.00105   0.00752
                          16        17        18        19        20
                           O         O         O         O         O
     Eigenvalues --    -0.46979  -0.43912  -0.39718  -0.37255  -0.33327
   1 1   C  1S         -0.00454  -0.00890   0.01745  -0.00549   0.00536
   2        2S          0.00963   0.02943  -0.04828   0.02401  -0.01406
   3        2PX         0.17683   0.14458   0.06370   0.06321   0.18073
   4        2PY        -0.19367  -0.01937   0.04361   0.03175  -0.10019
   5        2PZ        -0.18850   0.20669  -0.01411   0.04592  -0.10861
   6        3S          0.01816  -0.02921  -0.05800  -0.02992  -0.03707
   7        3PX         0.07981   0.06820   0.02027   0.03621   0.07869
   8        3PY        -0.08570   0.00553  -0.00175   0.04658  -0.05410
   9        3PZ        -0.08210   0.08113  -0.01444   0.00723  -0.07176
  10        4S         -0.05312  -0.12479  -0.01637  -0.06890   0.02887
  11        4PX         0.01881   0.03654   0.00497   0.01909  -0.00372
  12        4PY         0.00763   0.02809   0.00302   0.03120  -0.01877
  13        4PZ        -0.01828  -0.00917  -0.00620  -0.00234  -0.00370
  14        5XX        -0.00625   0.00906   0.00338   0.00359  -0.00956
  15        5YY         0.01792   0.00022  -0.00015   0.00355   0.00604
  16        5ZZ        -0.01164  -0.01113  -0.00531  -0.00893   0.00368
  17        5XY        -0.01148   0.01881  -0.00844   0.01621   0.00441
  18        5XZ         0.00869   0.00314   0.00580   0.00630   0.00308
  19        5YZ         0.00611   0.01141  -0.00428   0.00374   0.01171
  20 2   H  1S         -0.02424   0.16366   0.01783   0.08925   0.03238
  21        2S         -0.02510   0.15154   0.02938   0.09786   0.05037
  22        3PX         0.00368  -0.00383  -0.00045  -0.00141   0.00161
  23        3PY        -0.00212  -0.00312  -0.00051  -0.00065  -0.00224
  24        3PZ        -0.00215  -0.00137  -0.00136  -0.00125  -0.00235
  25 3   H  1S         -0.00358  -0.15936   0.00428  -0.04004  -0.02788
  26        2S         -0.00253  -0.14557   0.02643  -0.04743  -0.04108
  27        3PX         0.00283  -0.00143  -0.00167   0.00073   0.00245
  28        3PY        -0.00281   0.00332   0.00101   0.00151  -0.00182
  29        3PZ        -0.00289  -0.00319  -0.00040   0.00028  -0.00365
  30 4   N  1S          0.00460   0.03394   0.01815   0.03283  -0.06029
  31        2S         -0.01956  -0.08525  -0.05271  -0.07456   0.14714
  32        2PX        -0.26593  -0.04813  -0.06609   0.00155  -0.00901
  33        2PY        -0.14350  -0.02865  -0.05829  -0.13379  -0.15437
  34        2PZ         0.01899  -0.26398  -0.06620  -0.21132   0.29389
  35        3S          0.00056  -0.11682  -0.05345  -0.13521   0.24298
  36        3PX        -0.18102  -0.03350  -0.02906  -0.01992  -0.00331
  37        3PY        -0.08467  -0.02530  -0.02837  -0.06714  -0.08958
  38        3PZ         0.00589  -0.19171  -0.07096  -0.13593   0.22116
  39        4S         -0.07644   0.00280   0.17768   0.01230  -0.26518
  40        4PX         0.01859   0.01875   0.03594   0.01487  -0.07180
  41        4PY         0.01185   0.02318  -0.03054  -0.01036   0.02127
  42        4PZ         0.02861  -0.00720  -0.04788  -0.02022   0.11753
  43        5XX         0.01591  -0.00779   0.00121  -0.00111  -0.00573
  44        5YY        -0.01429  -0.01017  -0.00049  -0.00264  -0.00263
  45        5ZZ        -0.00042   0.02463   0.00276   0.01408  -0.00930
  46        5XY        -0.00440   0.00984  -0.01615  -0.01012   0.00054
  47        5XZ         0.01600   0.00567   0.01293  -0.00891  -0.00156
  48        5YZ         0.00737   0.00779  -0.00089   0.01054   0.01312
  49 5   N  1S         -0.01152   0.03918  -0.03684   0.01091   0.05167
  50        2S          0.02703  -0.08877   0.08667  -0.02216  -0.12356
  51        2PX         0.19792  -0.18066   0.13057  -0.26377  -0.17289
  52        2PY         0.25441   0.07555  -0.07759   0.04357   0.20558
  53        2PZ        -0.00473  -0.09481   0.18542   0.01697  -0.23292
  54        3S          0.05732  -0.17560   0.13524  -0.01431  -0.21205
  55        3PX         0.10767  -0.11955   0.10005  -0.17940  -0.14479
  56        3PY         0.14667   0.05273  -0.06129   0.03992   0.15886
  57        3PZ        -0.00495  -0.06942   0.12306   0.00797  -0.15974
  58        4S          0.10399   0.07804  -0.16464  -0.00772   0.27803
  59        4PX        -0.02045  -0.02852   0.06190  -0.00497  -0.10336
  60        4PY         0.02379   0.02520  -0.04143  -0.00258   0.10961
  61        4PZ         0.00343   0.00199  -0.00728  -0.00595   0.00794
  62        5XX        -0.00873   0.01411  -0.00033   0.01598   0.00261
  63        5YY         0.01479   0.00102  -0.00260  -0.00297  -0.00071
  64        5ZZ        -0.00629  -0.00936  -0.00349  -0.00896   0.00966
  65        5XY         0.00335  -0.00894   0.00831  -0.01244  -0.00518
  66        5XZ        -0.00637   0.01099  -0.01046   0.00180   0.00615
  67        5YZ        -0.01730  -0.00127   0.00447   0.00089  -0.01274
  68 6   H  1S         -0.12362   0.04530  -0.07775   0.02173   0.07210
  69        2S         -0.10297   0.04284  -0.04754  -0.00216   0.04953
  70        3PX         0.00107  -0.00461   0.00021  -0.00322  -0.00208
  71        3PY         0.00308   0.00328  -0.00425   0.00173   0.00933
  72        3PZ        -0.00678   0.00104   0.00026   0.00362  -0.00324
  73 7   Cl 1S         -0.00604  -0.00204  -0.00101   0.00100  -0.00268
  74        2S          0.02877   0.00921   0.00437  -0.00328   0.01070
  75        2PX        -0.09553  -0.10443  -0.14022   0.04465   0.04243
  76        2PY         0.04130   0.09222  -0.17154  -0.16322  -0.09130
  77        2PZ        -0.10412   0.07294   0.12134  -0.16234   0.11071
  78        3S         -0.06164  -0.02254  -0.01347   0.01353  -0.02941
  79        3PX         0.24630   0.26869   0.36537  -0.11755  -0.11103
  80        3PY        -0.10633  -0.23814   0.44791   0.42848   0.24234
  81        3PZ         0.26764  -0.18888  -0.31727   0.42617  -0.29271
  82        4S         -0.06272  -0.02837  -0.01494  -0.01172   0.00492
  83        4PX         0.07387   0.11616   0.17583  -0.07163  -0.04473
  84        4PY        -0.04587  -0.12082   0.23182   0.22517   0.12734
  85        4PZ         0.10604  -0.10068  -0.16665   0.21826  -0.15524
  86        5S          0.02296   0.04092   0.01045   0.02191  -0.00681
  87        5PX         0.01360   0.02015   0.01751   0.00217  -0.00591
  88        5PY         0.00187  -0.00508   0.02099   0.02393   0.02082
  89        5PZ         0.01476  -0.00337  -0.01108   0.02590  -0.03147
  90        6XX         0.02151   0.01954   0.01460   0.00463  -0.01374
  91        6YY        -0.00840  -0.00420  -0.00376   0.00092  -0.00079
  92        6ZZ         0.00299  -0.01060  -0.00536  -0.00406   0.01011
  93        6XY        -0.00823  -0.01031   0.00626  -0.00084  -0.00718
  94        6XZ         0.02292  -0.00412  -0.00042   0.00100   0.00286
  95        6YZ        -0.00417  -0.00011  -0.00008  -0.00056  -0.00209
                          21        22        23        24        25
                           V         V         V         V         V
     Eigenvalues --    -0.03302   0.01759   0.02899   0.04321   0.04769
   1 1   C  1S          0.00145  -0.03014   0.03788  -0.02012  -0.00598
   2        2S          0.00369   0.11315  -0.11149   0.01990  -0.01871
   3        2PX         0.01732  -0.01148  -0.06033   0.00314  -0.10381
   4        2PY         0.03618   0.06807  -0.02612  -0.01340  -0.02473
   5        2PZ        -0.06189  -0.02712   0.02000   0.04460  -0.11462
   6        3S         -0.05784  -0.08154  -0.09159   0.29416   0.20050
   7        3PX         0.06515   0.02921  -0.18505  -0.10165  -0.07957
   8        3PY         0.06471   0.23193  -0.00750  -0.05585  -0.12484
   9        3PZ        -0.12354  -0.01128   0.14185   0.11641  -0.06459
  10        4S         -0.19047  -2.27383  -0.15586   3.81849   2.80500
  11        4PX         0.16534  -0.43500  -0.02968  -1.77902   0.38584
  12        4PY         0.09425   0.69567   1.46797  -1.29511  -1.24527
  13        4PZ        -0.01378   0.64063   0.46936   0.85269   1.44059
  14        5XX         0.02011  -0.00527  -0.00240  -0.00009   0.00497
  15        5YY        -0.00239   0.00877   0.01812  -0.00193  -0.00561
  16        5ZZ        -0.01749  -0.00410  -0.00856  -0.00636  -0.00595
  17        5XY         0.00611  -0.00772   0.00049  -0.00437   0.00646
  18        5XZ        -0.00635   0.00789   0.00155   0.00985   0.00531
  19        5YZ         0.01195   0.00952   0.00408   0.00370   0.00880
  20 2   H  1S          0.03637  -0.00269   0.00479   0.01279   0.00880
  21        2S          0.07384   0.02923  -0.13152   0.12771  -0.15206
  22        3PX         0.00217  -0.00791   0.00554  -0.00533   0.01004
  23        3PY         0.00083  -0.00073   0.01045  -0.00413   0.00362
  24        3PZ        -0.00303   0.00050   0.00513   0.00324   0.00772
  25 3   H  1S         -0.04180   0.00067  -0.00508   0.00093   0.00044
  26        2S         -0.12642   0.10270   0.00079  -0.05741   0.14771
  27        3PX         0.00303  -0.00035  -0.00343  -0.00583   0.00117
  28        3PY        -0.00106  -0.00314   0.00802  -0.00176  -0.00834
  29        3PZ         0.00370   0.01166  -0.00133   0.00009   0.00873
  30 4   N  1S         -0.07059   0.01371   0.01313   0.01575   0.00626
  31        2S          0.14192  -0.03500  -0.02793  -0.05343  -0.03853
  32        2PX        -0.34151  -0.05321  -0.04662  -0.10146   0.00084
  33        2PY         0.00704  -0.03225  -0.01492  -0.05410  -0.01122
  34        2PZ        -0.25738   0.10100   0.00536  -0.04384  -0.01008
  35        3S          0.56673  -0.12025  -0.11766  -0.06285   0.03293
  36        3PX        -0.31887  -0.03880  -0.09938  -0.09307   0.00806
  37        3PY         0.01423   0.02807   0.00711  -0.05963  -0.01884
  38        3PZ        -0.33811   0.06743   0.09756   0.05570   0.00690
  39        4S          1.31397  -0.37465  -2.48249  -3.37909  -0.66714
  40        4PX        -0.35925  -0.46255  -0.35295  -0.75073  -0.26550
  41        4PY        -0.02704   0.00775  -0.21419  -0.16821  -0.33822
  42        4PZ        -0.28325  -0.07501   0.74457   0.53361  -0.36485
  43        5XX        -0.02753   0.00321  -0.00588  -0.00861  -0.01468
  44        5YY        -0.00828   0.00528   0.00137  -0.00105  -0.00476
  45        5ZZ         0.01267  -0.00084   0.00306  -0.00049   0.00647
  46        5XY        -0.00052   0.00132  -0.00338   0.00256  -0.00081
  47        5XZ         0.00918  -0.00215   0.00063   0.00222   0.00208
  48        5YZ        -0.00370   0.00023   0.00587  -0.00062  -0.00188
  49 5   N  1S         -0.01233  -0.03399  -0.03231   0.00908   0.01081
  50        2S          0.02884   0.09747   0.07823  -0.04178  -0.05142
  51        2PX         0.10392  -0.01739   0.00506   0.04551  -0.02978
  52        2PY        -0.07330   0.00398   0.07854   0.04670  -0.00037
  53        2PZ        -0.03290  -0.06439  -0.04833   0.04324  -0.01723
  54        3S          0.07099   0.20740   0.25429   0.01585   0.01297
  55        3PX         0.12106  -0.06892  -0.08073   0.01157  -0.01373
  56        3PY        -0.07695   0.03956   0.09493   0.05758  -0.04506
  57        3PZ        -0.06104  -0.10799  -0.04129   0.07004  -0.01463
  58        4S         -0.08012   2.71846   2.76125   0.26952  -2.28705
  59        4PX         0.16609  -0.08086  -0.22950  -0.36482  -0.08410
  60        4PY        -0.07128   0.85307   0.54762   0.10756  -0.42840
  61        4PZ        -0.01145   0.11058   0.06668   0.20348  -0.21862
  62        5XX         0.01222  -0.00131   0.00235  -0.00097  -0.00096
  63        5YY        -0.00181   0.00599  -0.00442   0.00156  -0.00687
  64        5ZZ        -0.01248   0.00132  -0.00265  -0.00684  -0.00674
  65        5XY        -0.00324   0.00397  -0.00589   0.00173  -0.00545
  66        5XZ        -0.00886   0.00502   0.00062   0.00275   0.00349
  67        5YZ        -0.01169  -0.00635  -0.00353  -0.00214  -0.00881
  68 6   H  1S         -0.06870  -0.01646  -0.02401   0.00117  -0.01312
  69        2S         -0.16668  -0.24855  -0.13308  -0.01655  -0.02505
  70        3PX         0.00656   0.00176   0.00131  -0.00491  -0.00105
  71        3PY        -0.00148   0.00183   0.00555  -0.00251   0.00020
  72        3PZ         0.00378   0.00694   0.00297  -0.00565   0.00104
  73 7   Cl 1S         -0.01596   0.00491  -0.00512  -0.01595   0.00247
  74        2S          0.07892  -0.02035   0.01694   0.06698  -0.01188
  75        2PX         0.15347  -0.00629  -0.00155  -0.00222   0.00716
  76        2PY        -0.00382   0.00632   0.02764  -0.01053  -0.00995
  77        2PZ         0.07869   0.02534   0.00856  -0.00802   0.01741
  78        3S         -0.15398   0.05828  -0.07177  -0.18845   0.02625
  79        3PX        -0.41359   0.02335  -0.00424  -0.00956  -0.01842
  80        3PY         0.00974  -0.01855  -0.07339   0.02608   0.02464
  81        3PZ        -0.21102  -0.06559  -0.02418   0.01950  -0.04124
  82        4S         -0.39268   0.03765   0.07620  -0.19427   0.04194
  83        4PX        -0.48340  -0.07714   0.15610   0.20946  -0.03278
  84        4PY         0.01872   0.00051  -0.09696   0.06430   0.06349
  85        4PZ        -0.24537  -0.11596  -0.01018   0.06550  -0.12563
  86        5S         -0.68914  -0.57793   0.69873  -0.88407  -0.37079
  87        5PX        -0.52905  -0.08270   0.12898  -1.01991   0.03588
  88        5PY         0.03749   0.01878   0.15660  -0.21297   0.08003
  89        5PZ        -0.22382   0.00720  -0.07955  -0.17220   0.21110
  90        6XX         0.06969  -0.00354  -0.00681   0.00453  -0.00006
  91        6YY        -0.02990   0.00047   0.00253   0.00102   0.00076
  92        6ZZ        -0.01407   0.00059  -0.00074   0.00485  -0.00705
  93        6XY        -0.00398  -0.00089   0.00183  -0.00319  -0.00188
  94        6XZ         0.05230   0.00704   0.00343   0.00049  -0.00716
  95        6YZ        -0.00344  -0.00065  -0.00227  -0.00243   0.00157
                          26        27        28        29        30
                           V         V         V         V         V
     Eigenvalues --     0.08851   0.09499   0.09762   0.11487   0.12796
   1 1   C  1S         -0.00334  -0.02097  -0.00034  -0.00616  -0.01699
   2        2S          0.01963   0.03427  -0.00217   0.04512   0.06678
   3        2PX         0.08653  -0.00205  -0.03037  -0.13220   0.11681
   4        2PY        -0.08639   0.00264  -0.02310   0.08869  -0.08162
   5        2PZ        -0.13694   0.03653  -0.00554   0.06115  -0.15108
   6        3S         -0.03428   0.27859   0.02055  -0.12608  -0.02137
   7        3PX         0.13390   0.01965  -0.04818  -0.03783   0.34107
   8        3PY        -0.04631   0.10208  -0.02117   0.20301   0.08511
   9        3PZ        -0.16764  -0.03537   0.03986   0.09155  -0.14759
  10        4S         -2.82500  -2.25010  -0.95426  -2.34260  -4.72015
  11        4PX         1.30496   0.03238   0.10450   0.80490   1.61567
  12        4PY         1.02062   1.24280   0.70226   1.22345   1.35699
  13        4PZ        -0.60058  -0.56935   0.59017   0.31640   0.50558
  14        5XX         0.00459  -0.00162  -0.00213  -0.00811   0.00729
  15        5YY        -0.00659   0.00141   0.00492   0.00851  -0.01733
  16        5ZZ         0.00301  -0.00999  -0.00544   0.00128   0.00647
  17        5XY         0.00568  -0.00052  -0.00221  -0.00568   0.00191
  18        5XZ        -0.00637  -0.00487   0.00514   0.00079  -0.00955
  19        5YZ        -0.00401   0.00207   0.00158  -0.00044  -0.00587
  20 2   H  1S         -0.01037  -0.01275   0.00338  -0.02933  -0.03031
  21        2S         -0.07675  -0.01027   0.05415  -0.17187  -0.19446
  22        3PX         0.00717  -0.00523  -0.00021  -0.00272   0.00531
  23        3PY         0.00004   0.00209   0.00268   0.00684  -0.00155
  24        3PZ        -0.00514  -0.00269   0.00299   0.00282  -0.00482
  25 3   H  1S         -0.01033  -0.03515   0.00889   0.00885  -0.00668
  26        2S          0.10571  -0.20310   0.09719   0.13159   0.08193
  27        3PX         0.00693  -0.00066  -0.00188  -0.00164   0.00565
  28        3PY        -0.00566   0.00360  -0.00008   0.00191  -0.00947
  29        3PZ        -0.00106   0.00186   0.00204   0.01041   0.00093
  30 4   N  1S          0.01569  -0.01435  -0.00499   0.00285  -0.01551
  31        2S         -0.03813   0.01793   0.00167   0.04681   0.03213
  32        2PX         0.00882  -0.06154  -0.08963   0.15585   0.02376
  33        2PY         0.22565  -0.06523  -0.02159  -0.21031   0.11673
  34        2PZ         0.06113  -0.06633  -0.00362   0.08744  -0.02428
  35        3S         -0.10600   0.20068   0.07070  -0.28068   0.17145
  36        3PX         0.03578  -0.18335  -0.11767   0.23566  -0.00063
  37        3PY         0.25844  -0.05682  -0.03111  -0.24375   0.23235
  38        3PZ         0.05775  -0.07115   0.01197   0.10712   0.00747
  39        4S         -2.99427   0.99872  -1.00851   6.97348  -1.74999
  40        4PX        -0.66479   1.80593  -0.43955   0.97109   0.38957
  41        4PY         1.47301  -0.28132   0.24755  -0.76955   0.65934
  42        4PZ         1.04772  -0.16412   0.35894  -1.69227   0.62352
  43        5XX         0.00288  -0.01508   0.00031   0.01918  -0.00204
  44        5YY         0.00533  -0.00315  -0.00330   0.00769  -0.00332
  45        5ZZ        -0.00102  -0.00144  -0.00669   0.00145  -0.00954
  46        5XY        -0.01555   0.00759  -0.00214   0.01398  -0.00239
  47        5XZ        -0.00596   0.00034   0.00036   0.00103  -0.00011
  48        5YZ        -0.00269  -0.00582  -0.00102  -0.00313  -0.00311
  49 5   N  1S         -0.01647   0.01243   0.00034   0.02165   0.03080
  50        2S          0.06223  -0.04131   0.00310  -0.04407  -0.05387
  51        2PX        -0.11988   0.08125   0.04247   0.13182  -0.00267
  52        2PY        -0.06600   0.04975   0.05788   0.08321  -0.06254
  53        2PZ         0.12032  -0.02189   0.03141  -0.10902   0.19355
  54        3S          0.02485   0.00791  -0.01154  -0.17677  -0.33300
  55        3PX        -0.15813   0.03358   0.03138   0.18767  -0.10163
  56        3PY        -0.06988   0.13029   0.09506   0.19000   0.03115
  57        3PZ         0.08877  -0.01994   0.05164  -0.10631   0.26127
  58        4S          5.40863  -1.11122   1.56815  -3.02481   5.10673
  59        4PX        -1.48278   0.68717  -0.06573   1.19365  -1.32196
  60        4PY         0.82728  -0.93433   0.05443  -1.09150   0.21420
  61        4PZ         1.06174  -0.81258   0.01867  -1.55237  -0.99246
  62        5XX         0.00218  -0.00088  -0.00084  -0.00548   0.00694
  63        5YY         0.01233   0.01152   0.00743   0.00550   0.02417
  64        5ZZ        -0.00542  -0.00356  -0.00159   0.01553   0.00255
  65        5XY         0.00983  -0.00372   0.00042  -0.00694   0.00440
  66        5XZ         0.01048  -0.00954   0.00128  -0.01233  -0.00554
  67        5YZ        -0.00376   0.00024  -0.00088   0.00825   0.00954
  68 6   H  1S         -0.00375  -0.01493   0.00770   0.02873   0.03564
  69        2S         -0.15264  -0.16996  -0.03679   0.01409  -0.45815
  70        3PX        -0.01045   0.00213  -0.00287   0.00877  -0.00688
  71        3PY        -0.00365  -0.00779  -0.00353  -0.00370  -0.01685
  72        3PZ         0.00801  -0.00453  -0.00361  -0.00658  -0.00849
  73 7   Cl 1S         -0.00347  -0.00231   0.00053   0.00390  -0.00326
  74        2S          0.01606   0.01143  -0.00117  -0.00997   0.01961
  75        2PX        -0.03370   0.04133   0.04813  -0.06624   0.00717
  76        2PY        -0.02974  -0.03099  -0.02882  -0.02578   0.02818
  77        2PZ         0.00477   0.05294  -0.03789  -0.02243  -0.00351
  78        3S         -0.03789  -0.02137   0.00896   0.06097  -0.02389
  79        3PX         0.08034  -0.11210  -0.12061   0.17705  -0.02175
  80        3PY         0.06972   0.07650   0.06901   0.06366  -0.06652
  81        3PZ        -0.01134  -0.13782   0.08776   0.05899   0.00490
  82        4S         -0.10248  -0.04547  -0.00352  -0.21203  -0.20716
  83        4PX         0.27343  -0.17399  -0.30451   0.27081  -0.02480
  84        4PY         0.23725   0.20756   0.22121   0.18153  -0.24035
  85        4PZ        -0.03240  -0.27784   0.32246   0.11722   0.08812
  86        5S          1.39688   2.57289   0.24949  -0.24469   2.64456
  87        5PX        -0.02001   1.61457   0.94506  -1.03068   1.09379
  88        5PY        -0.81728  -0.57328  -0.64480  -0.17315   1.03264
  89        5PZ        -0.03863   1.31964  -1.19693  -0.26581  -0.00122
  90        6XX        -0.00649  -0.00262  -0.00619   0.00044  -0.00294
  91        6YY         0.00324   0.00929  -0.00130   0.02182   0.01022
  92        6ZZ         0.00942  -0.00710   0.00841  -0.00802   0.00466
  93        6XY         0.02642  -0.00064   0.00662  -0.01434  -0.02043
  94        6XZ        -0.00218  -0.00383   0.02973  -0.01303  -0.00139
  95        6YZ         0.02403  -0.00467   0.00330  -0.01252   0.02609
                          31        32        33        34        35
                           V         V         V         V         V
     Eigenvalues --     0.13694   0.14589   0.16700   0.17569   0.19638
   1 1   C  1S         -0.05034  -0.00129  -0.00685  -0.06186   0.01523
   2        2S          0.08210  -0.01233   0.00334   0.08911  -0.00089
   3        2PX        -0.00246   0.17327  -0.01778  -0.12343  -0.10447
   4        2PY        -0.07799  -0.07532   0.11140   0.08985  -0.02025
   5        2PZ         0.01027  -0.13384  -0.00247   0.03263   0.10836
   6        3S          0.65580   0.12893   0.22301   0.94702  -0.40771
   7        3PX         0.15383   0.38403   0.05049  -0.30823  -0.22744
   8        3PY        -0.12163  -0.15383   0.34227   0.36785  -0.08942
   9        3PZ        -0.05902  -0.33812  -0.07706   0.09832   0.30224
  10        4S         -1.71152   6.09220  -0.24057  -1.08234   3.30872
  11        4PX         1.08194  -2.48682   0.59400   0.82295   0.45290
  12        4PY         0.45161  -0.97444  -0.70222   0.53278  -1.83876
  13        4PZ        -0.61921   0.47686  -0.49447  -0.51368  -0.54076
  14        5XX        -0.00574  -0.01034  -0.01091  -0.01246  -0.00795
  15        5YY        -0.00540  -0.00263   0.01974  -0.00411   0.02252
  16        5ZZ        -0.01332   0.00362  -0.01510  -0.01127   0.00103
  17        5XY         0.00091   0.00533  -0.00705   0.00502  -0.01026
  18        5XZ         0.00325  -0.00987  -0.00032  -0.00448   0.01699
  19        5YZ         0.00264  -0.00088   0.01365   0.00589   0.00684
  20 2   H  1S         -0.01636  -0.02196  -0.01825  -0.03286   0.01890
  21        2S         -0.00356  -0.11522  -0.15322  -0.11718   0.10226
  22        3PX        -0.00025  -0.00258  -0.00500  -0.00625  -0.00423
  23        3PY        -0.00347   0.00065   0.00428   0.00393   0.00456
  24        3PZ        -0.00297  -0.00240  -0.00074  -0.00181   0.00950
  25 3   H  1S         -0.02182  -0.00745  -0.02748  -0.04845   0.03406
  26        2S          0.08931  -0.25030  -0.36449  -0.28277   0.07527
  27        3PX        -0.00287   0.00832  -0.00191   0.00521  -0.00571
  28        3PY        -0.00004   0.00259   0.00489  -0.00385   0.00308
  29        3PZ         0.00634  -0.00522   0.00668   0.00657  -0.00048
  30 4   N  1S          0.02292  -0.00505   0.04023   0.03037   0.03591
  31        2S         -0.04734  -0.00817  -0.07954  -0.06864  -0.06246
  32        2PX        -0.02537   0.05011  -0.08239   0.01334  -0.24007
  33        2PY         0.07140   0.15845  -0.00211  -0.09455  -0.03199
  34        2PZ         0.10423   0.01265   0.11591  -0.03908   0.13705
  35        3S         -0.26636   0.19764  -0.44850  -0.17116  -0.60675
  36        3PX         0.01139   0.15386  -0.06219   0.02254  -0.41701
  37        3PY         0.14372   0.26211  -0.09723  -0.14353  -0.14299
  38        3PZ         0.07372  -0.03592   0.11935  -0.13948   0.22547
  39        4S          4.37824   1.93242   3.62528  -3.36814   0.78735
  40        4PX         0.52142  -0.96884  -0.46170  -1.09740   0.42598
  41        4PY        -0.80700  -0.30069   1.34957   0.51948   1.19017
  42        4PZ        -1.16122  -0.51467  -0.56771   3.05778  -1.08696
  43        5XX         0.00360   0.00116   0.00396   0.00431   0.01047
  44        5YY         0.00949  -0.00547   0.01770   0.00403   0.01437
  45        5ZZ         0.00057  -0.00401   0.00245   0.01679  -0.00221
  46        5XY         0.00861  -0.00963  -0.01655   0.00972  -0.00670
  47        5XZ        -0.00847   0.00173  -0.01686  -0.00669   0.00824
  48        5YZ        -0.00894   0.00238   0.01801  -0.00454   0.00931
  49 5   N  1S          0.00605   0.00275  -0.07295  -0.01410  -0.03717
  50        2S         -0.01670  -0.00713   0.11995   0.00239   0.07870
  51        2PX        -0.10278  -0.17232  -0.18450   0.07255   0.03452
  52        2PY         0.01367  -0.03038   0.12902  -0.00277   0.17528
  53        2PZ        -0.06994   0.04173   0.03396  -0.05119   0.06471
  54        3S          0.01278   0.03291   1.05890   0.30616   0.36436
  55        3PX        -0.09956  -0.22401  -0.25118   0.11089   0.19918
  56        3PY         0.06732  -0.04902   0.19878   0.06426   0.30500
  57        3PZ        -0.13588   0.07062   0.06935  -0.12965   0.05349
  58        4S         -3.95225  -2.75950  -3.03541   5.56065  -2.16445
  59        4PX         1.18245   0.49178   1.02973  -1.94107  -2.21375
  60        4PY        -1.61557  -1.20990  -1.19741   0.59576  -1.11220
  61        4PZ         0.53425  -0.01196  -0.18434  -0.02638   0.79573
  62        5XX        -0.00143  -0.00012  -0.00911  -0.01995  -0.01741
  63        5YY         0.01875   0.00762  -0.01325   0.00150   0.00779
  64        5ZZ        -0.01105  -0.00593  -0.03209  -0.00619  -0.01088
  65        5XY         0.00207  -0.00290  -0.00802  -0.00083   0.00885
  66        5XZ         0.01039   0.00072  -0.00110  -0.00431   0.01230
  67        5YZ        -0.01241  -0.00380  -0.00892  -0.00482  -0.00907
  68 6   H  1S         -0.01714  -0.00990  -0.06716  -0.02123   0.00708
  69        2S          0.26734  -0.01515  -0.25707  -0.43895  -0.09964
  70        3PX        -0.00313   0.00185  -0.00008   0.00449  -0.00889
  71        3PY        -0.00242  -0.00271   0.00717  -0.00370   0.00075
  72        3PZ         0.01387   0.00645   0.00938  -0.00207   0.00090
  73 7   Cl 1S         -0.00260   0.01321  -0.00280   0.00799  -0.00169
  74        2S          0.02250  -0.07291   0.02263  -0.05087   0.00593
  75        2PX        -0.01318  -0.02726  -0.01359  -0.02143   0.02483
  76        2PY         0.01541   0.01005   0.02087  -0.00814   0.00907
  77        2PZ        -0.00461   0.00363   0.01608   0.00260   0.01764
  78        3S         -0.00216   0.11477  -0.00691   0.05304  -0.02389
  79        3PX         0.03230   0.08167   0.03803   0.05536  -0.06126
  80        3PY        -0.03620  -0.02922  -0.05436   0.02417  -0.02184
  81        3PZ         0.01034  -0.00849  -0.04454  -0.01015  -0.04918
  82        4S         -0.54981   0.84497  -0.56606   0.82194   0.06712
  83        4PX         0.04118   0.08400  -0.02853   0.27452  -0.31305
  84        4PY        -0.13810  -0.02653  -0.16123   0.02509  -0.09262
  85        4PZ         0.02689  -0.04607  -0.09599   0.01563  -0.08656
  86        5S          1.63943  -6.03652   0.18904  -0.80807  -2.30086
  87        5PX         0.74402  -2.84299   0.25275  -0.53628  -1.22560
  88        5PY         0.71097  -0.43218  -0.29560   0.44044   0.35996
  89        5PZ        -0.26724  -0.41463  -0.30064  -0.85910   0.52198
  90        6XX        -0.02555   0.01511  -0.03701  -0.01182   0.03011
  91        6YY         0.03205  -0.02464   0.02101  -0.03004  -0.01185
  92        6ZZ         0.01662  -0.02915   0.03848   0.00690  -0.01945
  93        6XY        -0.01026   0.02376   0.03064  -0.03057  -0.01074
  94        6XZ         0.00973   0.01688   0.01833   0.02056   0.01241
  95        6YZ        -0.01405   0.00904   0.02087  -0.00342   0.00780
                          36        37        38        39        40
                           V         V         V         V         V
     Eigenvalues --     0.23906   0.24618   0.25586   0.26368   0.27285
   1 1   C  1S         -0.00664  -0.05236  -0.00288   0.01077  -0.05062
   2        2S          0.00906   0.10510   0.03855  -0.01625   0.07548
   3        2PX         0.07017   0.07043  -0.16277   0.17826   0.02491
   4        2PY         0.12964   0.08028  -0.14034  -0.02963   0.12331
   5        2PZ         0.05498   0.09814   0.02197   0.21845  -0.12327
   6        3S          0.16054   0.85609  -0.47145  -0.07904   0.74002
   7        3PX         0.31657   0.50729  -0.65129   0.59723   0.03011
   8        3PY         0.52867   0.66011  -0.43069  -0.20847   0.51949
   9        3PZ         0.16571   0.28050   0.05011   0.93377  -0.43941
  10        4S         -1.21835   9.70877  -3.60246  -2.88578  -5.27875
  11        4PX         0.68471  -2.04833  -0.22496   1.11614   1.03095
  12        4PY         0.07792  -2.23477   1.71038   0.95810   1.55883
  13        4PZ        -0.81949   1.94611  -0.70893   0.26067  -1.12647
  14        5XX        -0.00478  -0.00363   0.01870  -0.01549  -0.00223
  15        5YY        -0.00507   0.00677  -0.00679   0.00832   0.00241
  16        5ZZ         0.00184  -0.00479   0.00225   0.00257  -0.00023
  17        5XY        -0.00855  -0.01849  -0.00279  -0.01522  -0.01191
  18        5XZ        -0.00978  -0.01801   0.01875   0.01119  -0.00318
  19        5YZ        -0.01358   0.00062   0.01211  -0.03287   0.00866
  20 2   H  1S         -0.07460  -0.11706   0.04512  -0.04832  -0.07245
  21        2S         -0.93506  -1.70105   0.81537  -0.78498  -1.10095
  22        3PX        -0.00130   0.00073   0.00288  -0.00234  -0.00299
  23        3PY        -0.00279   0.00168  -0.00538  -0.00772  -0.00110
  24        3PZ        -0.00244  -0.00473   0.00487   0.00019   0.00350
  25 3   H  1S          0.00665  -0.06082  -0.01921   0.13061  -0.07558
  26        2S          0.13751  -0.99753  -0.18251   2.22717  -1.42635
  27        3PX         0.00508   0.00147  -0.00798   0.00183   0.00142
  28        3PY         0.00575   0.00489  -0.00797   0.00772   0.00196
  29        3PZ         0.00201  -0.00178  -0.00133   0.00251   0.00474
  30 4   N  1S         -0.04493   0.01231   0.06699   0.01655   0.03533
  31        2S          0.04616  -0.02851  -0.07169  -0.03290  -0.04946
  32        2PX         0.10300  -0.02892  -0.11763  -0.18151  -0.14489
  33        2PY        -0.18141   0.03700  -0.04600   0.08499   0.03329
  34        2PZ        -0.13110   0.03885   0.04929  -0.04159   0.03386
  35        3S          0.87622  -0.13517  -1.33173  -0.16017  -0.63598
  36        3PX         0.19927   0.07180  -0.18188  -0.43228  -0.42935
  37        3PY        -0.37126   0.13809  -0.08912   0.15982   0.09634
  38        3PZ        -0.22486   0.06713   0.12192  -0.11349  -0.01240
  39        4S        -11.45242  -2.32696   1.19541   4.59092   8.14461
  40        4PX        -2.50540  -4.58602  -2.86140   1.17484   6.20122
  41        4PY         3.86293  -1.37840   1.03997  -1.11709  -1.27117
  42        4PZ         2.61768  -1.25670   0.52782   0.03944  -1.63472
  43        5XX        -0.00992   0.00599   0.01193   0.02477   0.00485
  44        5YY        -0.02335   0.01967   0.02900  -0.01226   0.01652
  45        5ZZ        -0.01399  -0.01723   0.03057  -0.00293   0.01192
  46        5XY         0.00428   0.00611  -0.00096  -0.00128  -0.00784
  47        5XZ         0.00511  -0.01358  -0.00091   0.00329   0.02548
  48        5YZ         0.00923  -0.00615  -0.00554   0.00492  -0.00122
  49 5   N  1S          0.05600   0.00236   0.06779  -0.00762   0.00435
  50        2S         -0.08319  -0.00223  -0.06501   0.01315  -0.00597
  51        2PX         0.14694   0.00122  -0.03693  -0.06262  -0.07641
  52        2PY         0.06115   0.03225   0.02983   0.13297   0.05791
  53        2PZ        -0.11593   0.09345   0.17083   0.14411   0.13171
  54        3S         -0.78603   0.02488  -1.36755   0.10036  -0.11438
  55        3PX         0.20883   0.06414  -0.15133  -0.11414  -0.16428
  56        3PY         0.28795   0.04779   0.11738   0.29093   0.21535
  57        3PZ        -0.27902   0.13416   0.34418   0.45074   0.35025
  58        4S         12.06250  -0.25438   8.42808  -4.29127  -7.67531
  59        4PX        -2.69727  -0.76586   0.09421   1.77706   2.33100
  60        4PY         1.54881   1.27441   1.64992  -0.81832  -0.93940
  61        4PZ         3.62560   0.82556   0.95571  -1.33141  -1.73370
  62        5XX         0.01540   0.00095   0.03562  -0.00174   0.00928
  63        5YY         0.01466   0.00296   0.03023   0.00582  -0.00220
  64        5ZZ         0.02582  -0.00150   0.02172  -0.01290   0.00744
  65        5XY        -0.00196   0.02061  -0.00096   0.00665   0.00340
  66        5XZ         0.00437  -0.00204   0.01227   0.00992   0.00620
  67        5YZ         0.00893  -0.00208  -0.00995   0.02885  -0.00589
  68 6   H  1S          0.07249   0.03212   0.04367   0.12125   0.03662
  69        2S          0.71516   0.09703   0.50472   1.49253   0.75996
  70        3PX        -0.00026  -0.00806  -0.00769  -0.00280  -0.00653
  71        3PY        -0.00383  -0.00085  -0.00074  -0.00110   0.00510
  72        3PZ        -0.00477  -0.00262  -0.00722   0.00495  -0.00054
  73 7   Cl 1S          0.00239  -0.00098  -0.00592  -0.00253  -0.00285
  74        2S         -0.01817   0.01472   0.01928   0.00438   0.01645
  75        2PX        -0.00122   0.00770   0.02749   0.01117   0.00156
  76        2PY        -0.00557  -0.02024  -0.00754  -0.00266  -0.00466
  77        2PZ        -0.00314   0.01365   0.00553   0.01136  -0.00906
  78        3S          0.00940   0.01489  -0.08746  -0.04743  -0.02394
  79        3PX        -0.00153  -0.00853  -0.07532  -0.03622  -0.00528
  80        3PY         0.02409   0.05525   0.02545   0.00562   0.01809
  81        3PZ         0.01264  -0.03445  -0.00507  -0.01997   0.01667
  82        4S          0.45539  -0.50148  -0.11490   0.14782  -0.15494
  83        4PX         0.20795  -0.42102  -0.26055   0.06880  -0.02666
  84        4PY        -0.12725   0.15062  -0.01013   0.04291  -0.04542
  85        4PZ        -0.01868  -0.15471  -0.22336  -0.24367   0.19406
  86        5S          0.59299  -7.30174  -3.47862   1.66542   6.09049
  87        5PX         0.21691  -2.67881  -1.41481   0.56444   2.28876
  88        5PY        -0.38256   0.01807  -0.26511   0.10594   0.02679
  89        5PZ        -0.14721  -0.65981  -0.76568  -0.05636   1.04307
  90        6XX         0.00870  -0.01580   0.00781   0.01821   0.03047
  91        6YY        -0.01161   0.01991  -0.02023  -0.03450   0.00830
  92        6ZZ        -0.01396   0.01389   0.00721   0.00846  -0.02920
  93        6XY        -0.02065  -0.02008   0.00238  -0.00133   0.00346
  94        6XZ        -0.00013   0.00866  -0.00540   0.05214   0.00606
  95        6YZ         0.03462  -0.00806   0.00762  -0.00865   0.00822
                          41        42        43        44        45
                           V         V         V         V         V
     Eigenvalues --     0.30338   0.32311   0.36600   0.58393   0.60861
   1 1   C  1S         -0.06255   0.13128   0.03351   0.00130   0.01489
   2        2S          0.10540  -0.14445  -0.03005  -0.17995   0.23372
   3        2PX         0.12145   0.14065  -0.03337   0.33927  -0.41670
   4        2PY        -0.21756   0.12689   0.14261   0.40736  -0.54554
   5        2PZ         0.14990  -0.06766   0.22174  -0.04560   0.11197
   6        3S          0.83491  -2.88367  -0.97078   0.81133  -1.04058
   7        3PX         0.69903   1.06769   0.01468  -0.67642   1.12071
   8        3PY        -1.13365   1.21061   0.76607  -0.76597   1.41336
   9        3PZ         0.67898  -0.60425   0.94027   0.16734  -0.23016
  10        4S         -1.78509  -3.36315  -6.27300   0.30825  -2.22207
  11        4PX         1.16212   0.93211   0.94891   0.13869   0.31432
  12        4PY         0.30658   0.29588   2.28761   0.38717   0.14921
  13        4PZ        -0.14515  -0.25720   0.47281  -0.01975  -0.09847
  14        5XX         0.00706  -0.00367  -0.00845   0.03811   0.02088
  15        5YY        -0.01127   0.00345   0.00141  -0.00869  -0.00159
  16        5ZZ         0.02460  -0.00259   0.01323  -0.02533   0.00450
  17        5XY        -0.01273  -0.01240  -0.00631   0.01915  -0.00166
  18        5XZ         0.00175  -0.01310  -0.00197   0.00195  -0.00544
  19        5YZ         0.00537   0.00647   0.00813   0.01089  -0.00206
  20 2   H  1S         -0.04521  -0.03041  -0.02196   0.16584  -0.18509
  21        2S         -1.36202  -0.06421  -0.80752  -0.03069  -0.38554
  22        3PX        -0.00146   0.00109  -0.00365  -0.01466   0.02770
  23        3PY        -0.00928   0.00596  -0.00164  -0.00962   0.01212
  24        3PZ         0.01153  -0.00113   0.00579  -0.01340   0.02061
  25 3   H  1S          0.02397  -0.00678   0.03136  -0.01787  -0.01342
  26        2S          0.63430   0.29940   0.88544   0.10401   0.15610
  27        3PX        -0.00568   0.00187   0.00249  -0.00813   0.00278
  28        3PY        -0.00606   0.00905  -0.00006  -0.00841   0.01162
  29        3PZ        -0.00506  -0.00213  -0.00434   0.00498  -0.00527
  30 4   N  1S          0.02570  -0.00505   0.02294  -0.00438   0.01005
  31        2S         -0.01317   0.02702  -0.04787   0.26807   0.01452
  32        2PX         0.00475   0.16738  -0.10876  -0.10142  -0.19081
  33        2PY        -0.15756   0.11449   0.09048   0.03911  -0.01565
  34        2PZ        -0.08147  -0.22046   0.10388  -0.13587  -0.06843
  35        3S         -0.75134  -0.00911  -0.32847  -1.24673   0.20338
  36        3PX        -0.00327   0.62965  -0.46609   0.34912   0.36666
  37        3PY        -0.50005   0.46344   0.33278  -0.00580   0.11862
  38        3PZ        -0.32022  -0.87568   0.42182   0.55094  -0.07171
  39        4S          7.71186  11.62057 -11.77903  -1.24454   1.26788
  40        4PX         1.58075   0.99694  -0.41795  -0.01936   1.68828
  41        4PY         0.39163  -0.65202   1.07698  -0.02607  -0.01541
  42        4PZ        -1.75704  -2.37062   3.02075   0.71642  -0.20620
  43        5XX         0.00608   0.00328  -0.00032  -0.06341  -0.01698
  44        5YY         0.02541   0.01565   0.00753   0.06850   0.02233
  45        5ZZ         0.02018   0.03385  -0.01405   0.05804   0.01497
  46        5XY         0.02053  -0.00491   0.00534  -0.03043   0.06319
  47        5XZ         0.00696  -0.00651   0.01086  -0.00278  -0.08121
  48        5YZ         0.00938   0.00111   0.00569   0.02063  -0.02554
  49 5   N  1S          0.04994  -0.01014  -0.03760  -0.01972   0.01188
  50        2S         -0.06206   0.02073   0.06492   0.01738  -0.09816
  51        2PX         0.00255   0.08369  -0.25279   0.07015   0.00002
  52        2PY        -0.29166   0.17306   0.11871   0.03946  -0.07374
  53        2PZ        -0.15209  -0.07344  -0.10507  -0.00404  -0.00647
  54        3S         -1.01898   0.25566   0.68633   0.05128   0.69369
  55        3PX         0.01365   0.32963  -0.94090  -0.13264  -0.13597
  56        3PY        -1.08470   0.56274   0.46190   0.01090   0.20160
  57        3PZ        -0.51909  -0.37640  -0.48930   0.03733  -0.11622
  58        4S         -4.09425  -4.07641  17.72648   0.90420  -0.81859
  59        4PX         0.24896   0.67718  -2.94519  -0.22133   0.32358
  60        4PY        -0.96771  -0.75064   3.13515  -0.22139   0.01369
  61        4PZ        -1.05672  -1.05272  -0.02004  -0.08594  -0.47178
  62        5XX         0.01382   0.00204   0.02407   0.04956  -0.01304
  63        5YY        -0.00075  -0.00386  -0.00044  -0.06592   0.06884
  64        5ZZ         0.00773   0.00863   0.00174  -0.00564  -0.05297
  65        5XY         0.02709   0.00011  -0.01408  -0.02141   0.00354
  66        5XZ         0.00050  -0.00293   0.00541  -0.00754   0.00881
  67        5YZ        -0.00521  -0.00725  -0.01377  -0.01346   0.00296
  68 6   H  1S         -0.06120  -0.02017  -0.12565  -0.05538  -0.01280
  69        2S         -1.17303  -0.45748  -3.07085  -0.10831  -0.07431
  70        3PX        -0.00151  -0.00425  -0.00447  -0.00796  -0.00263
  71        3PY        -0.01046   0.00131   0.00048   0.02538  -0.03087
  72        3PZ         0.00242  -0.00501  -0.00650  -0.00037   0.00685
  73 7   Cl 1S         -0.00592  -0.00869   0.00472  -0.00173   0.01655
  74        2S          0.03643   0.05182  -0.02099  -0.04696  -0.04000
  75        2PX         0.00527   0.00225  -0.00914   0.21670   0.11355
  76        2PY        -0.00403   0.00674  -0.00491  -0.00266  -0.04092
  77        2PZ        -0.00644  -0.01003  -0.00731   0.02825   0.12100
  78        3S         -0.04356  -0.06806   0.05561  -0.16039   0.29661
  79        3PX        -0.00480   0.01238   0.02364  -0.89127  -0.49884
  80        3PY         0.01005  -0.02471   0.01077   0.01797   0.15750
  81        3PZ         0.01644   0.02861   0.02101  -0.12841  -0.49563
  82        4S         -0.70169  -1.07520   0.49517   1.15287  -0.22462
  83        4PX        -0.41455  -0.63631   0.20904   1.89802   1.14580
  84        4PY         0.03572   0.03009   0.10833  -0.08266  -0.18575
  85        4PZ         0.02631  -0.00296   0.12345   0.46078   0.85061
  86        5S          0.32056  -1.10373   3.13862  -0.20462   2.25459
  87        5PX         0.12247  -0.37432   1.07552  -0.84543   0.33994
  88        5PY        -0.10704   0.37265   0.22181   0.02852   0.13819
  89        5PZ        -0.02017  -0.36998   0.15032  -0.23710  -0.04868
  90        6XX         0.01371   0.01629   0.00014  -0.11532  -0.18592
  91        6YY         0.02925   0.04672  -0.02057   0.03213   0.12642
  92        6ZZ        -0.02257  -0.03703   0.01795   0.00288   0.08380
  93        6XY        -0.01446  -0.00193  -0.02666   0.06576  -0.09396
  94        6XZ        -0.01207  -0.02630   0.01328  -0.17113  -0.00223
  95        6YZ        -0.02373   0.01448   0.01924   0.01160   0.01328
                          46        47        48        49        50
[...]
  47        5XZ        -0.00617   0.07229  -0.19731  -0.05552  -0.00404
  48        5YZ        -0.10905   0.26445   0.59192   0.00699   0.00529
  49 5   N  1S         -0.01878   0.02450   0.00433  -0.08684  -0.08885
  50        2S          0.06315  -0.15834   0.28049   0.44901   0.06652
  51        2PX        -0.01157   0.07038   0.07979  -0.17177  -0.17986
  52        2PY         0.03426  -0.05665   0.06522  -0.06305  -0.29566
  53        2PZ        -0.02294   0.01957  -0.09740  -0.26744  -0.36453
  54        3S          0.22532   0.15489  -1.06467   0.59496   1.64366
  55        3PX        -0.61757  -0.02086   0.92617  -0.24981  -0.45537
  56        3PY         0.11532   0.38594  -0.06667  -0.42873   0.02828
  57        3PZ        -0.15278  -0.64152  -0.49264  -0.39129  -0.61520
  58        4S          1.91715   2.39648   1.07923   0.50570   1.22934
  59        4PX        -0.15888  -0.52832  -0.53425  -0.25170  -0.23277
  60        4PY         0.28099   0.38704   0.07583   0.16652   0.17973
  61        4PZ        -0.07755   0.45217   0.45000   0.01871  -0.02886
  62        5XX         0.09603   0.08222  -0.51409  -0.23942  -0.18802
  63        5YY        -0.13637   0.04494   0.69912  -0.34245  -0.43162
  64        5ZZ         0.05784   0.03546  -0.30803   0.09490   0.24996
  65        5XY        -0.40189   0.00813   0.41541   0.16915   0.18414
  66        5XZ         0.05109   0.44232   0.31843   0.31487   0.56085
  67        5YZ        -0.21353  -0.57266  -0.20778   0.24244   0.32691
  68 6   H  1S          0.01620  -0.07016   0.08926  -0.49519  -0.79333
  69        2S         -0.64255  -0.26727   0.09387  -0.71584  -1.04696
  70        3PX         0.07496   0.23611  -0.12904  -0.34816  -0.37288
  71        3PY        -0.46700  -0.42918   0.18758  -0.32835  -0.54432
  72        3PZ        -0.02160   0.12184  -0.03002  -0.58229  -0.76205
  73 7   Cl 1S          0.00260  -0.00236   0.00102   0.00053  -0.00041
  74        2S         -0.00705   0.00545  -0.00111  -0.01797   0.00105
  75        2PX        -0.00568   0.00070   0.00216  -0.00596  -0.00049
  76        2PY         0.00094  -0.00377  -0.00637   0.00122  -0.00040
  77        2PZ        -0.00123   0.00204  -0.00315  -0.00377  -0.00128
  78        3S          0.07282  -0.07204   0.03760  -0.01212  -0.01555
  79        3PX         0.03294   0.00410  -0.01484   0.01512   0.00861
  80        3PY        -0.00462   0.01652   0.03285  -0.00498   0.00155
  81        3PZ         0.00856   0.00026   0.01142   0.01260   0.00434
  82        4S          0.00277   0.16415  -0.08277   0.27338   0.06733
  83        4PX         0.02468   0.09089  -0.06979   0.14835   0.03711
  84        4PY         0.01118   0.01743   0.00584   0.01029  -0.01635
  85        4PZ        -0.00099   0.00203   0.00235   0.04242   0.04475
  86        5S          0.26708  -0.06760  -0.19584   0.36888   0.31695
  87        5PX         0.08117  -0.04437  -0.06476   0.12808   0.12367
  88        5PY         0.00848   0.00311  -0.02455  -0.01679   0.00578
  89        5PZ        -0.00631  -0.03946  -0.04678   0.08396   0.02597
  90        6XX         0.01949   0.03830  -0.03418   0.02541   0.00348
  91        6YY        -0.01813   0.01796  -0.01145  -0.05065   0.00576
  92        6ZZ        -0.04785   0.00320   0.01177  -0.04411   0.01125
  93        6XY         0.00088   0.02352   0.02943  -0.00259  -0.00374
  94        6XZ         0.00291  -0.02684   0.02164   0.02471   0.01678
  95        6YZ         0.00447  -0.00478   0.02157   0.00232  -0.00768
                          91        92        93        94        95
                           V         V         V         V         V
     Eigenvalues --     3.45690   3.98156   4.10726   4.38670   4.44818
   1 1   C  1S          0.02899  -0.03010  -0.03289  -0.01075  -0.49329
   2        2S         -0.06912  -0.03603   0.00283   0.12180   2.72653
   3        2PX         0.46827  -0.03580  -0.01749  -0.01897   0.00765
   4        2PY        -0.13208  -0.06495  -0.01679  -0.01819  -0.01634
   5        2PZ         0.60285   0.01848  -0.01767   0.00058   0.00011
   6        3S         -0.50591  -0.99455  -0.49654   0.28563   2.45173
   7        3PX         0.39608   0.20781  -0.03436   0.01830  -0.20553
   8        3PY         0.15958   0.29155   0.39001   0.00035  -0.30357
   9        3PZ         0.48192  -0.27631  -0.03286   0.11595   0.10786
  10        4S          0.13474   1.76501   1.59790   0.23239   0.47983
  11        4PX         0.08061  -0.37159  -0.06071  -0.15503   0.00109
  12        4PY        -0.07823  -0.48975  -0.61824   0.04581  -0.07480
  13        4PZ         0.15763   0.30539   0.09751  -0.00117   0.04615
  14        5XX         0.43846  -0.10584  -0.15028  -0.06033  -2.02801
  15        5YY         0.11559   0.04539   0.14276  -0.07020  -2.05131
  16        5ZZ        -0.42240  -0.06864  -0.16886  -0.04620  -2.08035
  17        5XY         0.63575   0.03515  -0.08731   0.01275  -0.10309
  18        5XZ        -0.13693  -0.29692  -0.03155  -0.00541  -0.23013
  19        5YZ         0.76651  -0.08480  -0.02418   0.02040   0.11960
  20 2   H  1S         -0.48584   0.19428   0.09934  -0.02163   0.31386
  21        2S         -0.37614   0.21925   0.08989  -0.08477  -0.19493
  22        3PX         0.53347  -0.12686  -0.03983   0.00937  -0.27889
  23        3PY         0.16568  -0.10797  -0.05357  -0.00549  -0.15440
  24        3PZ         0.39426  -0.01532  -0.01730  -0.00112  -0.19075
  25 3   H  1S          0.71882   0.13389   0.05024   0.03152   0.30799
  26        2S          0.60655   0.15498   0.02289  -0.00656  -0.20553
  27        3PX         0.38319  -0.03238  -0.00665  -0.00296   0.16811
  28        3PY        -0.44576  -0.10150  -0.07965  -0.00547  -0.15966
  29        3PZ         0.79529   0.08028  -0.01728   0.00292   0.30469
  30 4   N  1S         -0.00600  -0.52476   0.12006   0.03236  -0.00171
  31        2S          0.04290   0.56663  -0.31312  -0.10026  -0.15850
  32        2PX         0.00908  -0.07552  -0.00648   0.05149   0.01725
  33        2PY        -0.02719  -0.02158  -0.03556   0.00187   0.05234
  34        2PZ        -0.01608   0.15228  -0.05518   0.00025  -0.03261
  35        3S         -0.01290   4.92789  -1.45469  -0.19551  -0.14556
  36        3PX         0.00033   0.18405  -0.03230  -0.05640   0.03266
  37        3PY         0.08062   0.13407   0.35194  -0.04768  -0.10117
  38        3PZ         0.07890  -0.58948   0.29880   0.06118   0.02702
  39        4S         -0.69582  -3.93751   1.83519  -1.36708  -0.99126
  40        4PX        -0.06612  -0.38265   0.26851  -0.07709  -0.24375
  41        4PY        -0.00326   0.03372  -0.46980   0.10746  -0.08977
  42        4PZ         0.13682   0.54242  -0.33701   0.44375   0.36049
  43        5XX         0.03318  -1.57913   0.48938   0.14848   0.09968
  44        5YY        -0.00356  -1.67936   0.46354   0.06179   0.05133
  45        5ZZ        -0.08086  -1.64505   0.42603   0.09003   0.08443
  46        5XY        -0.01042  -0.01795  -0.05225  -0.00462   0.10469
  47        5XZ         0.00179   0.02363  -0.14044   0.08472  -0.15442
  48        5YZ         0.04992   0.01786   0.02318  -0.00687  -0.09101
  49 5   N  1S         -0.08695  -0.13397  -0.49722   0.04445   0.00368
  50        2S          0.12417   0.05721   0.61491  -0.01489  -0.15972
  51        2PX        -0.11059   0.01074   0.19707  -0.03302   0.00816
  52        2PY        -0.14280  -0.01196  -0.04260   0.01530   0.07242
  53        2PZ        -0.21334   0.09125   0.18201  -0.01156  -0.05062
  54        3S          1.21986   0.75909   4.64754  -0.35245  -0.23642
  55        3PX        -0.24346   0.34346  -0.28173  -0.00234  -0.04508
  56        3PY        -0.06489   0.30433   0.73604  -0.07683  -0.01514
  57        3PZ        -0.33340   0.00132   0.31684  -0.03486   0.10232
  58        4S          0.40681   0.14065  -4.13740   1.23445  -0.37341
  59        4PX        -0.22949  -0.30003   0.36543  -0.28686   0.03348
  60        4PY         0.07557  -0.04467  -0.77580   0.17614  -0.24171
  61        4PZ        -0.09826   0.28334  -0.46641   0.09740   0.07586
  62        5XX        -0.28276  -0.36566  -1.57346   0.13339   0.00631
  63        5YY        -0.23382  -0.31703  -1.60230   0.14529   0.32339
  64        5ZZ         0.01819  -0.46787  -1.86070   0.16255  -0.00025
  65        5XY         0.28167  -0.13446  -0.12468   0.01777   0.00511
  66        5XZ         0.28723  -0.22693  -0.19150   0.01648   0.01217
  67        5YZ         0.43629  -0.03696  -0.24287   0.00314   0.00383
  68 6   H  1S         -0.52069   0.25174   0.43694  -0.01060  -0.02853
  69        2S         -0.56183   0.16778  -0.11107  -0.08169   0.17310
  70        3PX        -0.29649   0.09981   0.31445  -0.02848  -0.00668
  71        3PY        -0.10294   0.04852   0.16425  -0.01334  -0.04110
  72        3PZ        -0.53656   0.15825   0.45625  -0.04996  -0.03923
  73 7   Cl 1S         -0.00078   0.01285   0.01002   0.16529  -0.00605
  74        2S         -0.00481  -0.06220  -0.04791  -0.82428   0.03122
  75        2PX        -0.00269   0.01403  -0.01039   0.01428  -0.00159
  76        2PY         0.00038  -0.00020   0.00194   0.00012  -0.00173
  77        2PZ         0.00159   0.00090  -0.00148   0.00413  -0.00070
  78        3S         -0.03760   0.43063   0.30346   5.32951  -0.19420
  79        3PX         0.00737  -0.12543   0.07385  -0.06989   0.01942
  80        3PY        -0.00519   0.00236  -0.01208  -0.00086   0.01118
  81        3PZ        -0.00467  -0.03440   0.01547  -0.01716   0.00175
  82        4S          0.15020  -0.13724   0.18701   0.83558   0.10119
  83        4PX         0.08938  -0.21620   0.10689   0.22948   0.01602
  84        4PY         0.03016   0.01280  -0.01466   0.01155  -0.03815
  85        4PZ         0.00787  -0.11354   0.03204   0.03702   0.03277
  86        5S          0.05699   0.32771  -0.31297  -0.42583   0.14725
  87        5PX         0.00361   0.25531  -0.10633  -0.16967   0.10521
  88        5PY         0.01454  -0.04054   0.03789  -0.02515   0.04151
  89        5PZ        -0.00346   0.14470  -0.02533  -0.00416  -0.08111
  90        6XX         0.02934  -0.28591  -0.09838  -2.48081   0.07442
  91        6YY        -0.01020  -0.18578  -0.13581  -2.48291   0.10416
  92        6ZZ        -0.01728  -0.17850  -0.14228  -2.49271   0.10491
  93        6XY         0.01555   0.00627  -0.00636   0.00296  -0.01323
  94        6XZ        -0.01110  -0.02098   0.01291  -0.00855   0.01660
  95        6YZ         0.00054  -0.00703  -0.01465   0.00129   0.00958
          Condensed to atoms (all electrons):
              1          2          3          4          5          6
     1  C    5.210831   0.376327   0.399133   0.145908   0.181667  -0.028325
     2  H    0.376327   0.502836  -0.031720  -0.031102  -0.017567   0.002645
     3  H    0.399133  -0.031720   0.516405  -0.010592  -0.046008  -0.007891
     4  N    0.145908  -0.031102  -0.010592   6.988361  -0.059426  -0.033114
     5  N    0.181667  -0.017567  -0.046008  -0.059426   6.993693   0.344135
     6  H   -0.028325   0.002645  -0.007891  -0.033114   0.344135   0.391969
     7  Cl  -0.102036   0.008098  -0.006827   0.142532  -0.060401  -0.003843
              7
     1  C   -0.102036
     2  H    0.008098
     3  H   -0.006827
     4  N    0.142532
     5  N   -0.060401
     6  H   -0.003843
     7  Cl  17.072721
 Mulliken atomic charges:
              1
     1  C   -0.183504
     2  H    0.190483
     3  H    0.187499
     4  N   -0.142566
     5  N   -0.336092
     6  H    0.334424
     7  Cl  -0.050244
 Sum of Mulliken atomic charges =   0.00000
 Mulliken charges with hydrogens summed into heavy atoms:
              1
     1  C    0.194478
     4  N   -0.142566
     5  N   -0.001668
     7  Cl  -0.050244
 Sum of Mulliken charges with hydrogens summed into heavy atoms =   0.00000
 Electronic spatial extent (au):  <R**2>=            339.5361
 Charge=              0.0000 electrons
 Dipole moment (field-independent basis, Debye):
    X=              1.1102    Y=              1.1399    Z=             -2.2426  Tot=              2.7498
 Quadrupole moment (field-independent basis, Debye-Ang):
   XX=            -31.6291   YY=            -29.9829   ZZ=            -31.1920
   XY=              3.1993   XZ=             -0.9663   YZ=              1.3898
 Traceless Quadrupole moment (field-independent basis, Debye-Ang):
   XX=             -0.6944   YY=              0.9517   ZZ=             -0.2573
   XY=              3.1993   XZ=             -0.9663   YZ=              1.3898
 Octapole moment (field-independent basis, Debye-Ang**2):
  XXX=             -5.8828  YYY=              0.4676  ZZZ=             -4.6357  XYY=             -0.0049
  XXY=              7.0179  XXZ=             -1.5253  XZZ=              0.1344  YZZ=             -0.7460
  YYZ=             -2.9770  XYZ=              1.8725
 Hexadecapole moment (field-independent basis, Debye-Ang**3):
 XXXX=           -297.8087 YYYY=            -82.2098 ZZZZ=            -62.1352 XXXY=             14.4236
 XXXZ=              5.4845 YYYX=              4.4312 YYYZ=              3.3389 ZZZX=             -2.5510
 ZZZY=              1.8778 XXYY=            -67.1120 XXZZ=            -59.6493 YYZZ=            -20.9166
 XXYZ=              3.4019 YYXZ=             -2.4139 ZZXY=             -0.3531
 N-N= 1.547514039563D+02 E-N=-1.750437384605D+03  KE= 6.068629640963D+02
 Orbital energies and kinetic energies (alpha):
                                 1                 2
   1         O              -102.687783        136.881849
   2         O               -14.882630         22.032240
   3         O               -14.828404         22.028668
   4         O               -10.637913         15.935054
   5         O                -9.832973         21.654592
   6         O                -7.557776         20.593612
   7         O                -7.549701         20.621872
   8         O                -7.549438         20.622551
   9         O                -1.194385          1.846428
  10         O                -0.946465          2.743333
  11         O                -0.818255          2.068062
  12         O                -0.757689          1.739356
  13         O                -0.632178          1.574022
  14         O                -0.566695          1.370001
  15         O                -0.492736          1.641456
  16         O                -0.469793          1.820940
  17         O                -0.439120          1.693305
  18         O                -0.397185          2.235275
  19         O                -0.372552          2.227001
  20         O                -0.333275          2.101867
  21         V                -0.033019          2.150101
  22         V                 0.017593          0.333163
  23         V                 0.028986          0.313711
  24         V                 0.043210          0.348675
  25         V                 0.047693          0.217619
  26         V                 0.088508          0.687242
  27         V                 0.094991          0.439312
  28         V                 0.097620          0.351869
  29         V                 0.114872          0.879756
  30         V                 0.127960          0.634541
  31         V                 0.136945          0.473141
  32         V                 0.145886          0.725542
  33         V                 0.167001          0.896911
  34         V                 0.175689          0.613061
  35         V                 0.196378          0.911925
  36         V                 0.239060          0.975567
  37         V                 0.246183          0.660540
  38         V                 0.255863          1.014938
  39         V                 0.263677          1.085257
  40         V                 0.272850          0.817057
  41         V                 0.303385          1.447537
  42         V                 0.323111          1.512798
  43         V                 0.366003          1.246663
  44         V                 0.583933          2.523930
  45         V                 0.608613          2.398012
  46         V                 0.641958          2.746961
  47         V                 0.644242          2.852665
  48         V                 0.673003          2.240926
  49         V                 0.732963          2.291646
  50         V                 0.762298          2.403789
  51         V                 0.795725          2.610726
  52         V                 0.865239          2.440905
  53         V                 0.873802          2.487361
  54         V                 0.910272          2.455379
  55         V                 0.928640          2.557473
  56         V                 0.941927          2.723573
  57         V                 0.959163          2.591986
  58         V                 1.009698          2.706979
  59         V                 1.023245          2.568266
  60         V                 1.035673          3.153756
  61         V                 1.059991          2.574247
  62         V                 1.122440          2.608628
  63         V                 1.142927          2.558471
  64         V                 1.152223          2.711540
  65         V                 1.207907          2.561200
  66         V                 1.375183          2.404196
  67         V                 1.420561          2.496706
  68         V                 1.475685          2.618686
  69         V                 1.593854          2.879378
  70         V                 1.690803          2.833376
  71         V                 1.792095          3.101598
  72         V                 1.849530          2.999555
  73         V                 1.936519          3.186662
  74         V                 1.976189          3.410723
  75         V                 2.041570          3.150784
  76         V                 2.118219          3.461395
  77         V                 2.168159          3.639538
  78         V                 2.234646          3.650466
  79         V                 2.330511          3.657639
  80         V                 2.385279          3.315808
  81         V                 2.402164          3.403257
  82         V                 2.570792          4.171591
  83         V                 2.652033          3.763862
  84         V                 2.698243          3.913401
  85         V                 2.758564          4.175597
  86         V                 2.824403          3.945471
  87         V                 2.844561          4.081874
  88         V                 2.887940          4.270314
  89         V                 3.268730          5.295771
  90         V                 3.392902          5.325766
  91         V                 3.456899          5.330963
  92         V                 3.981565         10.225975
  93         V                 4.107261          9.955540
  94         V                 4.386703         14.723404
  95         V                 4.448183         10.108684
 Total kinetic energy from orbitals= 6.068629640963D+02

 Test job not archived.
 1\1\GINC-NODE116\SP\RM062X\6-31+G(d,p)\C1H3Cl1N2\VSC40473\06-Nov-2012\
 0\\#m062x/6-31+g** gfinput iop(6/7=3)\\comment\\0,1\C,0,-0.695302,-1.4
 96978,0.098251\H,0,-1.239646,-2.19812,-0.528971\H,0,-1.137039,-1.26221
 ,1.062406\N,0,-0.038301,-0.387106,-0.6126\N,0,0.741613,-1.487326,-0.06
 6039\H,0,1.228966,-1.203748,0.786325\Cl,0,-0.020223,1.09629,0.486755\\
 Version=EM64L-G09RevA.02\State=1-A\HF=-609.4043661\RMSD=9.156e-09\Dipo
 le=-0.3877307,-0.6072221,0.807057\Quadrupole=0.9259759,-0.214779,-0.71
 11969,2.0580852,1.3871104,-0.8825779\PG=C01 [X(C1H3Cl1N2)]\\@


 NATURE REVEALS EVERY SECRET ONCE.
                    - RALPH WALDO EMERSON
 Job cpu time:  0 days  0 hours  0 minutes 43.0 seconds.
 File lengths (MBytes):  RWF=     10 Int=      0 D2E=      0 Chk=      1 Scr=      1
 Normal termination of Gaussian 09 at Tue Nov  6 10:46:51 2012.
