 Entering Gaussian System, Link 0=g09
 Initial command:
 /apps/gent/gengar/harpertown/software/Gaussian/g09_A.02-ictce-3.2.2.u2-amd64-gpfs/g09/l1.exe /tmp/3806899.master.gengar.gent.vsc/Gau-8068.inp -scrdir=/tmp/3806899.master.gengar.gent.vsc/
 Entering Link 1 = /apps/gent/gengar/harpertown/software/Gaussian/g09_A.02-ictce-3.2.2.u2-amd64-gpfs/g09/l1.exe PID=      8069.
  
 Copyright (c) 1988,1990,1992,1993,1995,1998,2003,2009, Gaussian, Inc.
                  All Rights Reserved.
  
 This is part of the Gaussian(R) 09 program.  It is based on
 the Gaussian(R) 03 system (copyright 2003, Gaussian, Inc.),
 the Gaussian(R) 98 system (copyright 1998, Gaussian, Inc.),
 the Gaussian(R) 94 system (copyright 1995, Gaussian, Inc.),
 the Gaussian 92(TM) system (copyright 1992, Gaussian, Inc.),
 the Gaussian 90(TM) system (copyright 1990, Gaussian, Inc.),
 the Gaussian 88(TM) system (copyright 1988, Gaussian, Inc.),
 the Gaussian 86(TM) system (copyright 1986, Carnegie Mellon
 University), and the Gaussian 82(TM) system (copyright 1983,
 Carnegie Mellon University). Gaussian is a federally registered
 trademark of Gaussian, Inc.
  
 This software contains proprietary and confidential information,
 including trade secrets, belonging to Gaussian, Inc.
  
 This software is provided under written license and may be
 used, copied, transmitted, or stored only in accord with that
 written license.
  
 The following legend is applicable only to US Government
 contracts under FAR:
  
                    RESTRICTED RIGHTS LEGEND
  
 Use, reproduction and disclosure by the US Government is
 subject to restrictions as set forth in subparagraphs (a)
 and (c) of the Commercial Computer Software - Restricted
 Rights clause in FAR 52.227-19.
  
 Gaussian, Inc.
 340 Quinnipiac St., Bldg. 40, Wallingford CT 06492
  
  
 ---------------------------------------------------------------
 Warning -- This program may not be used in any manner that
 competes with the business of Gaussian, Inc. or will provide
 assistance to any competitor of Gaussian, Inc.  The licensee
 of this program is prohibited from giving any competitor of
 Gaussian, Inc. access to this program.  By using this program,
 the user acknowledges that Gaussian, Inc. is engaged in the
 business of creating and licensing software in the field of
 computational chemistry and represents and warrants to the
 licensee that it is not a competitor of Gaussian, Inc. and that
 it will not use this program in any manner prohibited above.
 ---------------------------------------------------------------
  

 Cite this work as:
 Gaussian 09, Revision A.02,
 M. J. Frisch, G. W. Trucks, H. B. Schlegel, G. E. Scuseria, 
 M. A. Robb, J. R. Cheeseman, G. Scalmani, V. Barone, B. Mennucci, 
 G. A. Petersson, H. Nakatsuji, M. Caricato, X. Li, H. P. Hratchian, 
 A. F. Izmaylov, J. Bloino, G. Zheng, J. L. Sonnenberg, M. Hada, 
 M. Ehara, K. Toyota, R. Fukuda, J. Hasegawa, M. Ishida, T. Nakajima, 
 Y. Honda, O. Kitao, H. Nakai, T. Vreven, J. A. Montgomery, Jr., 
 J. E. Peralta, F. Ogliaro, M. Bearpark, J. J. Heyd, E. Brothers, 
 K. N. Kudin, V. N. Staroverov, R. Kobayashi, J. Normand, 
 K. Raghavachari, A. Rendell, J. C. Burant, S. S. Iyengar, J. Tomasi, 
 M. Cossi, N. Rega, J. M. Millam, M. Klene, J. E. Knox, J. B. Cross, 
 V. Bakken, C. Adamo, J. Jaramillo, R. Gomperts, R. E. Stratmann, 
 O. Yazyev, A. J. Austin, R. Cammi, C. Pomelli, J. W. Ochterski, 
 R. L. Martin, K. Morokuma, V. G. Zakrzewski, G. A. Voth, 
 P. Salvador, J. J. Dannenberg, S. Dapprich, A. D. Daniels, 
 O. Farkas, J. B. Foresman, J. V. Ortiz, J. Cioslowski, 
 and D. J. Fox, Gaussian, Inc., Wallingford CT, 2009.
 
 ******************************************
 Gaussian 09:  EM64L-G09RevA.02 11-Jun-2009
                 6-Nov-2012 
 ******************************************
 %nproc=8
 Will use up to    8 processors via shared memory.
 %mem=4GB
 ----------------------------------
 #m062x/6-31+g** gfinput iop(6/7=3)
 ----------------------------------
 1/38=1/1;
 2/12=2,17=6,18=5,40=1/2;
 3/5=1,6=6,7=111,11=2,16=1,24=10,25=1,30=1,74=-55/1,2,3;
 4//1;
 5/5=2,38=5/2;
 6/7=3,8=2,9=2,10=2,28=1/1;
 99/5=1,9=1/99;
 -------------------
 Title Card Required
 -------------------
 Symbolic Z-matrix:
 Charge =  0 Multiplicity = 1
 6                    0    -0.55974   0.3464    0.00424 
 1                    0    -1.09715  -0.03288  -0.86812 
 1                    0    -0.91162  -0.03178   0.97187 
 7                    0     0.0895    1.55427  -0.0612 
 7                    0     0.96874   0.44156  -0.17954 
 1                    0     1.36609   0.26186   0.7602 
 17                   0     0.15441   3.22315  -0.02232 
 
                          Input orientation:                          
 ---------------------------------------------------------------------
 Center     Atomic      Atomic             Coordinates (Angstroms)
 Number     Number       Type             X           Y           Z
 ---------------------------------------------------------------------
      1          6           0       -0.559743    0.346400    0.004243
      2          1           0       -1.097146   -0.032882   -0.868120
      3          1           0       -0.911621   -0.031780    0.971871
      4          7           0        0.089499    1.554266   -0.061199
      5          7           0        0.968741    0.441562   -0.179539
      6          1           0        1.366094    0.261859    0.760201
      7         17           0        0.154405    3.223148   -0.022320
 ---------------------------------------------------------------------
                    Distance matrix (angstroms):
                    1          2          3          4          5
     1  C    0.000000
     2  H    1.092554   0.000000
     3  H    1.096878   1.849321   0.000000
     4  N    1.372858   2.139693   2.141265   0.000000
     5  N    1.542432   2.228706   2.255118   1.423089   0.000000
     6  H    2.070620   2.967466   2.306299   1.993667   1.035999
     7  Cl   2.964185   3.589358   3.566424   1.670596   2.902599
                    6          7
     6  H    0.000000
     7  Cl   3.293898   0.000000
 Stoichiometry    CH3ClN2
 Framework group  C1[X(CH3ClN2)]
 Deg. of freedom    15
 Full point group                 C1      NOp   1
 Largest Abelian subgroup         C1      NOp   1
 Largest concise Abelian subgroup C1      NOp   1
                         Standard orientation:                         
 ---------------------------------------------------------------------
 Center     Atomic      Atomic             Coordinates (Angstroms)
 Number     Number       Type             X           Y           Z
 ---------------------------------------------------------------------
      1          6           0        1.441500   -0.686347    0.027145
      2          1           0        1.827853   -1.213156   -0.848570
      3          1           0        1.827777   -1.036289    0.992274
      4          7           0        0.222665   -0.057370   -0.032592
      5          7           0        1.320046    0.841148   -0.149216
      6          1           0        1.495122    1.237088    0.791993
      7         17           0       -1.446984   -0.020942    0.010240
 ---------------------------------------------------------------------
 Rotational constants (GHZ):     22.6347042      3.7611540      3.3363395
 Standard basis: 6-31+G(d,p) (6D, 7F)
 AO basis set in the form of general basis input (Overlap normalization):
      1 0
 S   6 1.00       0.000000000000
      0.3047524880D+04  0.1834737132D-02
      0.4573695180D+03  0.1403732281D-01
      0.1039486850D+03  0.6884262226D-01
      0.2921015530D+02  0.2321844432D+00
      0.9286662960D+01  0.4679413484D+00
      0.3163926960D+01  0.3623119853D+00
 SP   3 1.00       0.000000000000
      0.7868272350D+01 -0.1193324198D+00  0.6899906659D-01
      0.1881288540D+01 -0.1608541517D+00  0.3164239610D+00
      0.5442492580D+00  0.1143456438D+01  0.7443082909D+00
 SP   1 1.00       0.000000000000
      0.1687144782D+00  0.1000000000D+01  0.1000000000D+01
 SP   1 1.00       0.000000000000
      0.4380000000D-01  0.1000000000D+01  0.1000000000D+01
 D   1 1.00       0.000000000000
      0.8000000000D+00  0.1000000000D+01
 ****
      2 0
 S   3 1.00       0.000000000000
      0.1873113696D+02  0.3349460434D-01
      0.2825394365D+01  0.2347269535D+00
      0.6401216923D+00  0.8137573261D+00
 S   1 1.00       0.000000000000
      0.1612777588D+00  0.1000000000D+01
 P   1 1.00       0.000000000000
      0.1100000000D+01  0.1000000000D+01
 ****
      3 0
 S   3 1.00       0.000000000000
      0.1873113696D+02  0.3349460434D-01
      0.2825394365D+01  0.2347269535D+00
      0.6401216923D+00  0.8137573261D+00
 S   1 1.00       0.000000000000
      0.1612777588D+00  0.1000000000D+01
 P   1 1.00       0.000000000000
      0.1100000000D+01  0.1000000000D+01
 ****
      4 0
 S   6 1.00       0.000000000000
      0.4173511460D+04  0.1834772160D-02
      0.6274579110D+03  0.1399462700D-01
      0.1429020930D+03  0.6858655181D-01
      0.4023432930D+02  0.2322408730D+00
      0.1282021290D+02  0.4690699481D+00
      0.4390437010D+01  0.3604551991D+00
 SP   3 1.00       0.000000000000
      0.1162636186D+02 -0.1149611817D+00  0.6757974388D-01
      0.2716279807D+01 -0.1691174786D+00  0.3239072959D+00
      0.7722183966D+00  0.1145851947D+01  0.7408951398D+00
 SP   1 1.00       0.000000000000
      0.2120314975D+00  0.1000000000D+01  0.1000000000D+01
 SP   1 1.00       0.000000000000
      0.6390000000D-01  0.1000000000D+01  0.1000000000D+01
 D   1 1.00       0.000000000000
      0.8000000000D+00  0.1000000000D+01
 ****
      5 0
 S   6 1.00       0.000000000000
      0.4173511460D+04  0.1834772160D-02
      0.6274579110D+03  0.1399462700D-01
      0.1429020930D+03  0.6858655181D-01
      0.4023432930D+02  0.2322408730D+00
      0.1282021290D+02  0.4690699481D+00
      0.4390437010D+01  0.3604551991D+00
 SP   3 1.00       0.000000000000
      0.1162636186D+02 -0.1149611817D+00  0.6757974388D-01
      0.2716279807D+01 -0.1691174786D+00  0.3239072959D+00
      0.7722183966D+00  0.1145851947D+01  0.7408951398D+00
 SP   1 1.00       0.000000000000
      0.2120314975D+00  0.1000000000D+01  0.1000000000D+01
 SP   1 1.00       0.000000000000
      0.6390000000D-01  0.1000000000D+01  0.1000000000D+01
 D   1 1.00       0.000000000000
      0.8000000000D+00  0.1000000000D+01
 ****
      6 0
 S   3 1.00       0.000000000000
      0.1873113696D+02  0.3349460434D-01
      0.2825394365D+01  0.2347269535D+00
      0.6401216923D+00  0.8137573261D+00
 S   1 1.00       0.000000000000
      0.1612777588D+00  0.1000000000D+01
 P   1 1.00       0.000000000000
      0.1100000000D+01  0.1000000000D+01
 ****
      7 0
 S   6 1.00       0.000000000000
      0.2518010000D+05  0.1832959848D-02
      0.3780350000D+04  0.1403419883D-01
      0.8604740000D+03  0.6909739426D-01
      0.2421450000D+03  0.2374519803D+00
      0.7733490000D+02  0.4830339599D+00
      0.2624700000D+02  0.3398559718D+00
 SP   6 1.00       0.000000000000
      0.4917650000D+03 -0.2297391417D-02  0.3989400879D-02
      0.1169840000D+03 -0.3071371894D-01  0.3031770668D-01
      0.3741530000D+02 -0.1125280694D+00  0.1298800286D+00
      0.1378340000D+02  0.4501632776D-01  0.3279510723D+00
      0.5452150000D+01  0.5893533634D+00  0.4535271000D+00
      0.2225880000D+01  0.4652062868D+00  0.2521540556D+00
 SP   3 1.00       0.000000000000
      0.3186490000D+01 -0.2518280280D+00 -0.1429931472D-01
      0.1144270000D+01  0.6158925141D-01  0.3235723331D+00
      0.4203770000D+00  0.1060184328D+01  0.7435077653D+00
 SP   1 1.00       0.000000000000
      0.1426570000D+00  0.1000000000D+01  0.1000000000D+01
 SP   1 1.00       0.000000000000
      0.4830000000D-01  0.1000000000D+01  0.1000000000D+01
 D   1 1.00       0.000000000000
      0.7500000000D+00  0.1000000000D+01
 ****

 There are    95 symmetry adapted basis functions of A   symmetry.
 Integral buffers will be    131072 words long.
 Raffenetti 2 integral format.
 Two-electron integral symmetry is turned on.
    95 basis functions,   173 primitive gaussians,    95 cartesian basis functions
    20 alpha electrons       20 beta electrons
       nuclear repulsion energy       154.4052970625 Hartrees.
 NAtoms=    7 NActive=    7 NUniq=    7 SFac= 7.50D-01 NAtFMM=   80 NAOKFM=F Big=F
 One-electron integrals computed using PRISM.
 NBasis=    95 RedAO= T  NBF=    95
 NBsUse=    95 1.00D-06 NBFU=    95
 Harris functional with IExCor= 1009 diagonalized for initial guess.
 ExpMin= 4.38D-02 ExpMax= 2.52D+04 ExpMxC= 3.78D+03 IAcc=2 IRadAn=         0 AccDes= 0.00D+00
 HarFok:  IExCor= 1009 AccDes= 0.00D+00 IRadAn=         0 IDoV= 1
 ScaDFX=  1.000000  1.000000  1.000000  1.000000
 FoFCou: FMM=F IPFlag=           0 FMFlag=      100000 FMFlg1=           0
         NFxFlg=           0 DoJE=T BraDBF=F KetDBF=T FulRan=T
         Omega=  0.000000  0.000000  1.000000  0.000000  0.000000 ICntrl=     500 IOpCl=  0
         NMat0=    1 NMatS0=    1 NMatT0=    0 NMatD0=    1 NMtDS0=    0 NMtDT0=    0
         I1Cent=           4 NGrid=           0.
 Petite list used in FoFCou.
 Initial guess orbital symmetries:
       Occupied  (A) (A) (A) (A) (A) (A) (A) (A) (A) (A) (A) (A)
                 (A) (A) (A) (A) (A) (A) (A) (A)
       Virtual   (A) (A) (A) (A) (A) (A) (A) (A) (A) (A) (A) (A)
                 (A) (A) (A) (A) (A) (A) (A) (A) (A) (A) (A) (A)
                 (A) (A) (A) (A) (A) (A) (A) (A) (A) (A) (A) (A)
                 (A) (A) (A) (A) (A) (A) (A) (A) (A) (A) (A) (A)
                 (A) (A) (A) (A) (A) (A) (A) (A) (A) (A) (A) (A)
                 (A) (A) (A) (A) (A) (A) (A) (A) (A) (A) (A) (A)
                 (A) (A) (A)
 The electronic state of the initial guess is 1-A.
 Requested convergence on RMS density matrix=1.00D-08 within 128 cycles.
 Requested convergence on MAX density matrix=1.00D-06.
 Requested convergence on             energy=1.00D-06.
 No special actions if energy rises.
 Keep R1 ints in memory in canonical form, NReq=11419875.
 SCF Done:  E(RM062X) =  -609.344867774     A.U. after   13 cycles
             Convg  =    0.4427D-08             -V/T =  2.0042

 **********************************************************************

            Population analysis using the SCF density.

 **********************************************************************

 Orbital symmetries:
       Occupied  (A) (A) (A) (A) (A) (A) (A) (A) (A) (A) (A) (A)
                 (A) (A) (A) (A) (A) (A) (A) (A)
       Virtual   (A) (A) (A) (A) (A) (A) (A) (A) (A) (A) (A) (A)
                 (A) (A) (A) (A) (A) (A) (A) (A) (A) (A) (A) (A)
                 (A) (A) (A) (A) (A) (A) (A) (A) (A) (A) (A) (A)
                 (A) (A) (A) (A) (A) (A) (A) (A) (A) (A) (A) (A)
                 (A) (A) (A) (A) (A) (A) (A) (A) (A) (A) (A) (A)
                 (A) (A) (A) (A) (A) (A) (A) (A) (A) (A) (A) (A)
                 (A) (A) (A)
 The electronic state is 1-A.
 Alpha  occ. eigenvalues -- -102.71861 -14.82173 -14.81935 -10.64069  -9.86036
 Alpha  occ. eigenvalues --   -7.58653  -7.57690  -7.57607  -1.17392  -0.99281
 Alpha  occ. eigenvalues --   -0.80603  -0.72928  -0.62044  -0.58072  -0.51331
 Alpha  occ. eigenvalues --   -0.44887  -0.43940  -0.40075  -0.37284  -0.26515
 Alpha virt. eigenvalues --   -0.00783   0.02004   0.03108   0.04080   0.05142
 Alpha virt. eigenvalues --    0.07991   0.09970   0.10098   0.11570   0.12057
 Alpha virt. eigenvalues --    0.13714   0.15260   0.18179   0.20289   0.20746
 Alpha virt. eigenvalues --    0.23435   0.24377   0.27290   0.27570   0.28667
 Alpha virt. eigenvalues --    0.32793   0.34542   0.39584   0.58416   0.64092
 Alpha virt. eigenvalues --    0.64416   0.64770   0.72649   0.75036   0.77325
 Alpha virt. eigenvalues --    0.83319   0.84647   0.87840   0.90222   0.92158
 Alpha virt. eigenvalues --    0.93293   0.97556   0.99626   1.05016   1.07429
 Alpha virt. eigenvalues --    1.11237   1.12778   1.18538   1.19857   1.37201
 Alpha virt. eigenvalues --    1.39919   1.42484   1.53449   1.65576   1.71629
 Alpha virt. eigenvalues --    1.74482   1.84328   1.94018   2.00459   2.05864
 Alpha virt. eigenvalues --    2.14474   2.17136   2.26575   2.32450   2.43295
 Alpha virt. eigenvalues --    2.44597   2.62923   2.66399   2.70189   2.81010
 Alpha virt. eigenvalues --    2.84294   2.85872   2.93015   3.27776   3.37336
 Alpha virt. eigenvalues --    3.44640   3.99375   4.10971   4.47019   4.51577
     Molecular Orbital Coefficients:
                           1         2         3         4         5
                           O         O         O         O         O
     Eigenvalues --  -102.71861 -14.82173 -14.81935 -10.64069  -9.86036
   1 1   C  1S          0.00001   0.00003  -0.00003   0.99426  -0.00002
   2        2S          0.00001   0.00017   0.00004   0.04156  -0.00009
   3        2PX        -0.00004  -0.00026  -0.00005  -0.00109   0.00007
   4        2PY         0.00002   0.00011   0.00032   0.00115   0.00002
   5        2PZ         0.00000  -0.00001  -0.00004  -0.00003   0.00000
   6        3S          0.00007   0.00056   0.00251  -0.01731  -0.00058
   7        3PX        -0.00002  -0.00023  -0.00030   0.00160   0.00019
   8        3PY         0.00004   0.00021   0.00097  -0.00235  -0.00002
   9        3PZ         0.00000  -0.00001   0.00015   0.00010   0.00004
  10        4S          0.00038  -0.00079   0.00056  -0.01247   0.00214
  11        4PX        -0.00012   0.00021   0.00011   0.00306  -0.00053
  12        4PY         0.00006  -0.00029   0.00010  -0.00208  -0.00009
  13        4PZ         0.00000   0.00001  -0.00008   0.00008   0.00003
  14        5XX         0.00003   0.00002  -0.00009  -0.00627   0.00001
  15        5YY         0.00003  -0.00004   0.00003  -0.00642   0.00001
  16        5ZZ         0.00001   0.00006   0.00003  -0.00653  -0.00017
  17        5XY        -0.00004  -0.00003  -0.00004  -0.00036  -0.00003
  18        5XZ         0.00001   0.00000   0.00002   0.00004   0.00001
  19        5YZ         0.00000   0.00001   0.00004  -0.00005  -0.00001
  20 2   H  1S         -0.00001  -0.00006  -0.00009   0.00013  -0.00007
  21        2S          0.00006  -0.00013  -0.00013   0.00112   0.00183
  22        3PX        -0.00001   0.00007   0.00003  -0.00001  -0.00005
  23        3PY         0.00000  -0.00005  -0.00009   0.00002   0.00006
  24        3PZ        -0.00001  -0.00001  -0.00002  -0.00016   0.00005
  25 3   H  1S         -0.00001  -0.00007  -0.00015   0.00011  -0.00007
  26        2S          0.00006  -0.00015  -0.00028   0.00117   0.00177
  27        3PX        -0.00001   0.00006   0.00004   0.00000  -0.00004
  28        3PY         0.00000  -0.00005  -0.00008   0.00003   0.00005
  29        3PZ         0.00001   0.00002   0.00003   0.00019  -0.00006
  30 4   N  1S          0.00000   0.99222  -0.05826  -0.00012  -0.00010
  31        2S          0.00009   0.02960  -0.00132   0.00036   0.00008
  32        2PX        -0.00005   0.00013   0.00023  -0.00005  -0.00004
  33        2PY         0.00000   0.00033   0.00012   0.00010   0.00002
  34        2PZ         0.00000   0.00008  -0.00003   0.00000  -0.00001
  35        3S          0.00007   0.00049  -0.00020   0.00054   0.00203
  36        3PX        -0.00013  -0.00064  -0.00078  -0.00109   0.00142
  37        3PY         0.00003  -0.00024   0.00065  -0.00119  -0.00010
  38        3PZ         0.00001  -0.00006   0.00010   0.00002   0.00004
  39        4S         -0.00036   0.00277   0.00227   0.00643   0.00099
  40        4PX        -0.00052   0.00137   0.00051   0.00985  -0.01854
  41        4PY        -0.00003   0.00080   0.00061  -0.00270  -0.00122
  42        4PZ         0.00001  -0.00005  -0.00012   0.00008   0.00058
  43        5XX        -0.00017  -0.00602   0.00010  -0.00058  -0.00079
  44        5YY         0.00000  -0.00607   0.00033  -0.00005   0.00006
  45        5ZZ         0.00001  -0.00601   0.00043   0.00023  -0.00003
  46        5XY         0.00002   0.00000  -0.00011   0.00026   0.00003
  47        5XZ         0.00000   0.00000   0.00003  -0.00005   0.00003
  48        5YZ         0.00000   0.00001   0.00006   0.00000   0.00000
  49 5   N  1S          0.00000   0.05824   0.99237  -0.00008  -0.00002
  50        2S          0.00002   0.00186   0.02938   0.00008  -0.00008
  51        2PX        -0.00001  -0.00024  -0.00083   0.00000   0.00003
  52        2PY        -0.00001  -0.00022  -0.00138  -0.00002   0.00006
  53        2PZ         0.00000   0.00014   0.00174  -0.00007   0.00001
  54        3S         -0.00001   0.00028  -0.00020   0.00272  -0.00015
  55        3PX         0.00004  -0.00027   0.00063  -0.00023   0.00047
  56        3PY        -0.00003   0.00009   0.00164  -0.00152  -0.00023
  57        3PZ        -0.00003   0.00006  -0.00141   0.00100  -0.00027
  58        4S          0.00032  -0.00228  -0.00368   0.00312   0.01373
  59        4PX        -0.00008   0.00071   0.00038   0.00001  -0.00073
  60        4PY        -0.00006   0.00039   0.00036  -0.00035  -0.00342
  61        4PZ        -0.00001  -0.00003   0.00005   0.00074   0.00013
  62        5XX        -0.00001  -0.00032  -0.00580  -0.00001  -0.00004
  63        5YY         0.00003  -0.00040  -0.00586  -0.00044   0.00000
  64        5ZZ         0.00001  -0.00028  -0.00566   0.00008  -0.00012
  65        5XY         0.00002   0.00003   0.00011   0.00009  -0.00001
  66        5XZ         0.00000   0.00000   0.00004   0.00001  -0.00002
  67        5YZ         0.00000   0.00004   0.00014   0.00012  -0.00003
  68 6   H  1S          0.00001  -0.00010   0.00020  -0.00014   0.00005
  69        2S          0.00006  -0.00012   0.00072  -0.00182   0.00066
  70        3PX        -0.00001   0.00004   0.00002   0.00004   0.00002
  71        3PY         0.00000   0.00004   0.00005  -0.00001  -0.00003
  72        3PZ         0.00000   0.00005   0.00034   0.00007  -0.00005
  73 7   Cl 1S          0.99592   0.00000   0.00000   0.00000  -0.28542
  74        2S          0.01544  -0.00004   0.00002  -0.00002   1.02471
  75        2PX         0.00006  -0.00004   0.00001   0.00002   0.00791
  76        2PY         0.00000   0.00000   0.00001   0.00000  -0.00021
  77        2PZ         0.00000   0.00000   0.00000   0.00000  -0.00011
  78        3S         -0.02119  -0.00002  -0.00001  -0.00011   0.06557
  79        3PX         0.00000   0.00016  -0.00007  -0.00013   0.00176
  80        3PY         0.00000   0.00001  -0.00002  -0.00001  -0.00004
  81        3PZ         0.00000   0.00000   0.00000   0.00001  -0.00004
  82        4S          0.00172   0.00003  -0.00059   0.00049  -0.02118
  83        4PX        -0.00009  -0.00002  -0.00033  -0.00032  -0.00309
  84        4PY        -0.00001  -0.00003  -0.00016   0.00056   0.00012
  85        4PZ         0.00000   0.00001   0.00000  -0.00005   0.00007
  86        5S         -0.00070   0.00059   0.00013   0.00871  -0.01056
  87        5PX        -0.00013   0.00014   0.00010   0.00304  -0.00412
  88        5PY         0.00002  -0.00013   0.00004  -0.00005   0.00042
  89        5PZ         0.00000  -0.00002   0.00001  -0.00014   0.00011
  90        6XX         0.00760   0.00015  -0.00001  -0.00005  -0.01291
  91        6YY         0.00757  -0.00005   0.00005   0.00001  -0.01411
  92        6ZZ         0.00757  -0.00006   0.00003   0.00001  -0.01417
  93        6XY         0.00000   0.00001  -0.00007   0.00013  -0.00002
  94        6XZ         0.00000   0.00000  -0.00001  -0.00001  -0.00004
  95        6YZ         0.00000   0.00000   0.00000  -0.00001   0.00000
                           6         7         8         9        10
                           O         O         O         O         O
     Eigenvalues --    -7.58653  -7.57690  -7.57607  -1.17392  -0.99281
   1 1   C  1S         -0.00002   0.00002   0.00000  -0.09021   0.04029
   2        2S         -0.00008   0.00001   0.00002   0.17166  -0.07949
   3        2PX         0.00024  -0.00013   0.00001  -0.07753   0.00119
   4        2PY        -0.00001   0.00003  -0.00001   0.09810  -0.05625
   5        2PZ        -0.00001   0.00000  -0.00001  -0.00722   0.00330
   6        3S         -0.00500   0.00025  -0.00016   0.06706  -0.03865
   7        3PX         0.00239  -0.00015   0.00004   0.00452  -0.00195
   8        3PY        -0.00170  -0.00026  -0.00007  -0.00510  -0.00061
   9        3PZ         0.00019  -0.00007  -0.00028   0.00339  -0.00453
  10        4S         -0.00023   0.00281  -0.00051   0.07869  -0.01288
  11        4PX        -0.00009  -0.00227   0.00020  -0.02034   0.00005
  12        4PY        -0.00011  -0.00118  -0.00010   0.02437  -0.00577
  13        4PZ        -0.00009   0.00007  -0.00087  -0.00241   0.00002
  14        5XX         0.00006   0.00012   0.00000   0.00020   0.00466
  15        5YY         0.00009   0.00002  -0.00001   0.00890  -0.00892
  16        5ZZ        -0.00022   0.00004   0.00001  -0.01237   0.00420
  17        5XY        -0.00001  -0.00004   0.00001  -0.01312   0.00514
  18        5XZ         0.00000   0.00000   0.00007   0.00129  -0.00065
  19        5YZ        -0.00007  -0.00001  -0.00005  -0.00165   0.00091
  20 2   H  1S          0.00021  -0.00002   0.00005   0.02529  -0.01606
  21        2S         -0.00037   0.00012  -0.00036   0.00563  -0.00399
  22        3PX        -0.00005  -0.00002  -0.00001  -0.00180   0.00030
  23        3PY         0.00009   0.00001  -0.00001   0.00254  -0.00139
  24        3PZ        -0.00001  -0.00002   0.00001   0.00261  -0.00124
  25 3   H  1S          0.00020  -0.00001  -0.00003   0.02602  -0.01689
  26        2S         -0.00048   0.00021   0.00017   0.00329   0.00003
  27        3PX        -0.00005  -0.00003   0.00002  -0.00176   0.00024
  28        3PY         0.00008   0.00002   0.00000   0.00192  -0.00100
  29        3PZ         0.00000   0.00002   0.00001  -0.00314   0.00149
  30 4   N  1S         -0.00013   0.00004   0.00000  -0.14505  -0.04893
  31        2S          0.00030   0.00018   0.00001   0.29508   0.10166
  32        2PX        -0.00021   0.00000   0.00000   0.09851  -0.19546
  33        2PY         0.00005   0.00011   0.00000   0.02826  -0.02057
  34        2PZ         0.00000  -0.00001   0.00005   0.00192   0.00345
  35        3S          0.00290  -0.00153  -0.00004   0.28134   0.14504
  36        3PX         0.00736  -0.00089   0.00005   0.01938  -0.07260
  37        3PY        -0.00064  -0.00080   0.00001   0.00339  -0.00080
  38        3PZ        -0.00018   0.00007   0.00010   0.00353   0.00315
  39        4S          0.00783   0.00874  -0.00004  -0.13979  -0.05261
  40        4PX        -0.00522   0.00063   0.00071  -0.04132   0.00181
  41        4PY        -0.00055   0.00633  -0.00011  -0.01271  -0.00714
  42        4PZ         0.00019  -0.00063   0.00121   0.00024   0.00250
  43        5XX        -0.00178   0.00003   0.00003   0.02162   0.01056
  44        5YY         0.00027   0.00000   0.00000  -0.00613  -0.00331
  45        5ZZ         0.00000   0.00012  -0.00001  -0.01916  -0.00458
  46        5XY         0.00003   0.00030   0.00002   0.00706  -0.00540
  47        5XZ         0.00005  -0.00002   0.00033  -0.00052  -0.00104
  48        5YZ        -0.00006  -0.00001  -0.00002  -0.00060  -0.00038
  49 5   N  1S         -0.00006  -0.00009   0.00000  -0.11990   0.07276
  50        2S         -0.00022  -0.00032  -0.00001   0.24900  -0.15440
  51        2PX         0.00016   0.00011   0.00000  -0.06624  -0.00218
  52        2PY         0.00009   0.00000   0.00000  -0.10493   0.04681
  53        2PZ        -0.00008  -0.00002  -0.00003   0.04462  -0.03549
  54        3S         -0.00104   0.00237   0.00001   0.22149  -0.16696
  55        3PX         0.00080  -0.00090   0.00001  -0.01337   0.00362
  56        3PY         0.00054  -0.00048   0.00002  -0.03766   0.02444
  57        3PZ         0.00043   0.00030   0.00011   0.01902  -0.01865
  58        4S          0.00403  -0.00958   0.00004   0.01808   0.03697
  59        4PX        -0.00032   0.00437  -0.00015  -0.01497  -0.00756
  60        4PY        -0.00096   0.00073   0.00002   0.00192  -0.01118
  61        4PZ         0.00063  -0.00003  -0.00036   0.00255  -0.00159
  62        5XX        -0.00003  -0.00015  -0.00001  -0.00358   0.00718
  63        5YY        -0.00012  -0.00023   0.00001   0.00672  -0.00414
  64        5ZZ        -0.00024  -0.00022   0.00003  -0.01178   0.00446
  65        5XY        -0.00008   0.00004   0.00001   0.01304  -0.00299
  66        5XZ        -0.00003  -0.00002   0.00004  -0.00330  -0.00016
  67        5YZ        -0.00001   0.00001   0.00004  -0.00515   0.00217
  68 6   H  1S          0.00007  -0.00010  -0.00007   0.05916  -0.04972
  69        2S         -0.00138  -0.00038  -0.00013  -0.00122   0.00012
  70        3PX         0.00010   0.00007   0.00003  -0.00210   0.00061
  71        3PY         0.00003   0.00002   0.00001  -0.00462   0.00295
  72        3PZ        -0.00002  -0.00001   0.00001  -0.00778   0.00544
  73 7   Cl 1S          0.00245  -0.00002   0.00002   0.01616   0.06882
  74        2S         -0.00897   0.00009  -0.00010  -0.07260  -0.30950
  75        2PX         0.99150   0.01585   0.02516  -0.02604  -0.04711
  76        2PY        -0.01736   0.99099   0.06153  -0.00016   0.00209
  77        2PZ        -0.02410  -0.06194   0.99091   0.00046   0.00080
  78        3S          0.00148   0.00000   0.00001   0.13935   0.61960
  79        3PX         0.02642   0.00035   0.00056   0.05758   0.11113
  80        3PY        -0.00047   0.02242   0.00136   0.00047  -0.00505
  81        3PZ        -0.00064  -0.00141   0.02207  -0.00102  -0.00189
  82        4S          0.00088  -0.00057   0.00020   0.03018   0.20332
  83        4PX        -0.00800  -0.00045  -0.00013  -0.00670  -0.01176
  84        4PY         0.00024  -0.00831  -0.00045   0.00138  -0.00052
  85        4PZ         0.00017   0.00056  -0.00766  -0.00015   0.00083
  86        5S         -0.00838  -0.00226   0.00065  -0.00964   0.01716
  87        5PX        -0.00050  -0.00077   0.00028   0.00336   0.01413
  88        5PY         0.00010   0.00227   0.00013   0.00278   0.00101
  89        5PZ        -0.00003  -0.00013   0.00241   0.00003  -0.00059
  90        6XX         0.00162   0.00002   0.00001   0.01668   0.03524
  91        6YY        -0.00074   0.00000  -0.00002  -0.00650  -0.01554
  92        6ZZ        -0.00075   0.00001  -0.00003  -0.00714  -0.01789
  93        6XY        -0.00003   0.00058   0.00004   0.00048  -0.00232
  94        6XZ        -0.00006  -0.00003   0.00058  -0.00059  -0.00140
  95        6YZ         0.00000  -0.00001  -0.00002  -0.00004  -0.00005
                          11        12        13        14        15
                           O         O         O         O         O
     Eigenvalues --    -0.80603  -0.72928  -0.62044  -0.58072  -0.51331
   1 1   C  1S          0.10735   0.12743  -0.01737   0.01393  -0.01278
   2        2S         -0.22341  -0.25795   0.02943  -0.02073   0.02089
   3        2PX         0.09998  -0.14502   0.07135  -0.18286   0.21305
   4        2PY         0.05506   0.06681  -0.14846   0.14956  -0.03450
   5        2PZ         0.01438  -0.02053   0.20616   0.26321   0.16248
   6        3S         -0.20209  -0.28202   0.05110  -0.08311   0.05768
   7        3PX         0.00855  -0.03084   0.01429  -0.05091   0.06960
   8        3PY         0.00866   0.00857  -0.03658   0.04710  -0.01451
   9        3PZ         0.00150  -0.01768   0.07751   0.11248   0.06210
  10        4S         -0.01628  -0.02520  -0.02251  -0.05668  -0.00058
  11        4PX         0.00870   0.00032   0.00526   0.00607   0.01075
  12        4PY         0.00695   0.00003  -0.00702  -0.00749  -0.00399
  13        4PZ        -0.00067  -0.00424   0.00964   0.01270   0.00102
  14        5XX        -0.00818   0.01413   0.00142   0.00986  -0.01998
  15        5YY         0.01656   0.00068  -0.01255   0.00389   0.00380
  16        5ZZ         0.00294  -0.00469   0.00728  -0.00948   0.00882
  17        5XY         0.00999  -0.00477   0.00932  -0.01097  -0.00437
  18        5XZ        -0.00156   0.00023  -0.00459  -0.00310   0.00098
  19        5YZ         0.00148  -0.00187   0.01028   0.00400  -0.00390
  20 2   H  1S         -0.07823  -0.13194  -0.01465  -0.19476  -0.00878
  21        2S         -0.02418  -0.05818  -0.00369  -0.11233  -0.00895
  22        3PX         0.00320   0.00157   0.00081   0.00233   0.00328
  23        3PY        -0.00154  -0.00362  -0.00196  -0.00416  -0.00083
  24        3PZ        -0.00518  -0.00805   0.00064  -0.00806   0.00127
  25 3   H  1S         -0.06617  -0.14249   0.14350   0.04798   0.15365
  26        2S         -0.01969  -0.05415   0.07789   0.01796   0.11677
  27        3PX         0.00279   0.00147  -0.00273  -0.00291   0.00005
  28        3PY        -0.00057  -0.00229   0.00142   0.00215   0.00229
  29        3PZ         0.00451   0.00884  -0.00681  -0.00051  -0.00603
  30 4   N  1S          0.07281  -0.10427  -0.03058   0.00229   0.00495
  31        2S         -0.15897   0.22685   0.05991   0.00168  -0.01335
  32        2PX        -0.06339  -0.03577  -0.23783   0.22371  -0.00397
  33        2PY         0.16605   0.08084  -0.04599  -0.07713   0.37109
  34        2PZ         0.00746  -0.01812   0.16890   0.20989   0.03159
  35        3S         -0.21913   0.34693   0.12399  -0.04157   0.00941
  36        3PX        -0.02534  -0.01949  -0.12325   0.11931   0.02642
  37        3PY         0.06112   0.04305  -0.02583  -0.04439   0.24527
  38        3PZ         0.00273  -0.00273   0.09350   0.12042   0.02196
  39        4S          0.02770  -0.04839   0.03195   0.02614  -0.04364
  40        4PX         0.03100  -0.01007   0.03358   0.06389  -0.01288
  41        4PY        -0.00668  -0.02684   0.00955  -0.00452   0.00241
  42        4PZ        -0.00333   0.00774  -0.00672  -0.00276   0.00867
  43        5XX        -0.00407   0.00296   0.00047  -0.00321   0.00035
  44        5YY         0.00725  -0.00042   0.00379  -0.00543   0.00341
  45        5ZZ         0.00541  -0.00952  -0.00066   0.00142  -0.00205
  46        5XY         0.01406   0.00644  -0.00592   0.00117   0.00260
  47        5XZ         0.00127  -0.00187   0.00912   0.01006   0.00026
  48        5YZ         0.00204  -0.00099   0.00231   0.00059  -0.00310
  49 5   N  1S         -0.13691   0.01846   0.00747   0.04310   0.01873
  50        2S          0.29559  -0.03430  -0.02696  -0.09451  -0.03186
  51        2PX         0.02345  -0.15573   0.07155  -0.02818  -0.23185
  52        2PY         0.10375   0.00865   0.19085  -0.09328  -0.12098
  53        2PZ         0.11484  -0.03785   0.19594   0.14018  -0.08866
  54        3S          0.38873  -0.07338  -0.00658  -0.15398  -0.11391
  55        3PX        -0.00163  -0.05312   0.02055  -0.01563  -0.09569
  56        3PY         0.01034   0.01727   0.07079  -0.04040  -0.04092
  57        3PZ         0.06085  -0.01906   0.09640   0.06932  -0.05038
  58        4S         -0.01448   0.05968  -0.01409  -0.01722   0.03345
  59        4PX         0.00288  -0.01084   0.00360   0.00280  -0.01928
  60        4PY         0.00845  -0.01370  -0.00245  -0.00380  -0.01173
  61        4PZ         0.00524   0.00160   0.00104   0.00126  -0.00202
  62        5XX        -0.00641   0.01427  -0.00385  -0.00648   0.02031
  63        5YY        -0.01596  -0.00618  -0.01918   0.00418   0.00354
  64        5ZZ         0.00326  -0.00304   0.01984   0.00867  -0.01023
  65        5XY        -0.00291   0.01436  -0.01017   0.00774   0.00918
  66        5XZ         0.00124  -0.00690  -0.00172  -0.00824  -0.01086
  67        5YZ         0.00501   0.00174  -0.00257  -0.01908  -0.00993
  68 6   H  1S          0.16864  -0.04429   0.14157   0.00385  -0.12418
  69        2S          0.03218  -0.01775   0.07270  -0.00156  -0.08099
  70        3PX        -0.00209  -0.00281  -0.00042  -0.00044  -0.00411
  71        3PY        -0.00420   0.00186  -0.00096  -0.00305   0.00008
  72        3PZ        -0.01398   0.00298  -0.00616   0.00234   0.00644
  73 7   Cl 1S          0.02161  -0.03266  -0.02148   0.01297   0.00011
  74        2S         -0.09810   0.14861   0.09810  -0.06014  -0.00045
  75        2PX         0.02248  -0.07477  -0.11418   0.09418  -0.00278
  76        2PY        -0.01096  -0.00526   0.00839   0.01145  -0.11418
  77        2PZ        -0.00112   0.00362  -0.01852  -0.03832  -0.00901
  78        3S          0.20186  -0.31129  -0.21118   0.12690   0.00100
  79        3PX        -0.05296   0.18200   0.28594  -0.23791   0.00835
  80        3PY         0.02671   0.01294  -0.02112  -0.02915   0.29472
  81        3PZ         0.00267  -0.00873   0.04672   0.09741   0.02324
  82        4S          0.11348  -0.20030  -0.16698   0.13188   0.01000
  83        4PX        -0.00150   0.01766   0.05080  -0.04510   0.00974
  84        4PY         0.00515   0.00420  -0.00544  -0.00983   0.10669
  85        4PZ         0.00076  -0.00392   0.01351   0.02887   0.00678
  86        5S          0.01841   0.01473   0.02372   0.05174   0.00190
  87        5PX         0.00345   0.01333   0.01580   0.01050  -0.00016
  88        5PY         0.00055   0.00607  -0.00337  -0.00130   0.00688
  89        5PZ         0.00047  -0.00106   0.00260   0.00241  -0.00056
  90        6XX        -0.00653   0.02763   0.04018  -0.03095   0.00221
  91        6YY         0.00041  -0.00601  -0.01061   0.00844  -0.00139
  92        6ZZ        -0.00015  -0.00510  -0.01090   0.00795  -0.00017
  93        6XY         0.00757   0.00275  -0.00377  -0.00354   0.02824
  94        6XZ         0.00066  -0.00207   0.00890   0.01537   0.00258
  95        6YZ        -0.00011  -0.00002  -0.00003  -0.00032  -0.00083
                          16        17        18        19        20
                           O         O         O         O         O
     Eigenvalues --    -0.44887  -0.43940  -0.40075  -0.37284  -0.26515
   1 1   C  1S         -0.00392   0.00061  -0.01354  -0.00205  -0.00019
   2        2S          0.01112  -0.00101   0.02966  -0.00338  -0.00020
   3        2PX        -0.07807   0.13508  -0.02624  -0.17062  -0.02834
   4        2PY        -0.17063   0.23004   0.14644  -0.06548  -0.03062
   5        2PZ        -0.21860  -0.05032  -0.10816   0.12213  -0.03136
   6        3S         -0.02893   0.03758   0.08016   0.06446   0.00448
   7        3PX        -0.02279   0.05769  -0.02309  -0.09864  -0.00878
   8        3PY        -0.10206   0.12339   0.09011  -0.01693  -0.02608
   9        3PZ        -0.12401  -0.02645  -0.02689   0.03637  -0.04313
  10        4S         -0.02121   0.00568  -0.01210   0.05640  -0.06340
  11        4PX         0.00308   0.00528   0.00693  -0.02262   0.00798
  12        4PY        -0.01285   0.01103   0.01301   0.00741  -0.03580
  13        4PZ        -0.01979   0.00091  -0.00170   0.01038  -0.05062
  14        5XX         0.00580  -0.01074  -0.00167   0.01281   0.00236
  15        5YY        -0.00930   0.01928   0.00844  -0.01329   0.00043
  16        5ZZ         0.00035  -0.00458  -0.00764  -0.00042  -0.00281
  17        5XY        -0.00817   0.00826   0.00284   0.00601   0.00007
  18        5XZ        -0.01377  -0.00783  -0.00381   0.00769  -0.03287
  19        5YZ         0.01698  -0.00257   0.01059  -0.01678   0.01023
  20 2   H  1S          0.17030  -0.01598   0.02633  -0.11010   0.06650
  21        2S          0.12586  -0.01073   0.03292  -0.11904   0.08902
  22        3PX        -0.00351   0.00277  -0.00023  -0.00109   0.00082
  23        3PY         0.00068   0.00268   0.00209  -0.00251  -0.00037
  24        3PZ         0.00374  -0.00176  -0.00052  -0.00194  -0.00070
  25 3   H  1S         -0.11563  -0.05615  -0.10294   0.06539  -0.07448
  26        2S         -0.09768  -0.04936  -0.12026   0.08807  -0.10823
  27        3PX        -0.00016   0.00288   0.00228  -0.00375  -0.00259
  28        3PY        -0.00346   0.00226   0.00033  -0.00052  -0.00077
  29        3PZ         0.00158   0.00143   0.00283  -0.00050  -0.00095
  30 4   N  1S         -0.01096   0.01712  -0.00001  -0.00210   0.00485
  31        2S          0.02131  -0.03734   0.00370   0.00307  -0.01698
  32        2PX         0.09316  -0.12062  -0.02310   0.00658  -0.00122
  33        2PY         0.04749   0.00607  -0.07284  -0.20822   0.00752
  34        2PZ         0.17278   0.14752   0.02757  -0.07702   0.52753
  35        3S          0.06690  -0.08703  -0.02726   0.00302  -0.00807
  36        3PX         0.08770  -0.09930  -0.03362  -0.01698   0.00489
  37        3PY         0.04362  -0.00503  -0.02014  -0.11520   0.01553
  38        3PZ         0.13870   0.11098   0.00983  -0.06006   0.45078
  39        4S          0.11488  -0.05631  -0.07331   0.02655   0.11709
  40        4PX         0.05186  -0.03109   0.02897  -0.08566  -0.02010
  41        4PY         0.02341  -0.00585  -0.01797  -0.01948   0.01150
  42        4PZ         0.01733   0.00642  -0.00661  -0.01115   0.19106
  43        5XX        -0.01379   0.01963   0.01295  -0.00937  -0.00428
  44        5YY         0.00940  -0.01536  -0.01108   0.00498   0.00138
  45        5ZZ        -0.00121   0.00221  -0.00031   0.00287   0.00178
  46        5XY        -0.00492   0.00283  -0.01948  -0.01899  -0.00078
  47        5XZ        -0.00900  -0.01460   0.01023  -0.00940   0.00388
  48        5YZ         0.00675  -0.00057   0.00880  -0.01024  -0.00512
  49 5   N  1S          0.02229  -0.01392   0.04562  -0.05047  -0.03843
  50        2S         -0.05034   0.03351  -0.09913   0.11128   0.08296
  51        2PX        -0.15644   0.21486   0.18366   0.13583   0.03988
  52        2PY         0.13137  -0.23540  -0.13791   0.20463   0.07262
  53        2PZ         0.13321  -0.10543   0.23057  -0.29157  -0.22407
  54        3S         -0.10841   0.07746  -0.21158   0.21233   0.20797
  55        3PX        -0.08490   0.12143   0.11458   0.08387   0.02728
  56        3PY         0.08073  -0.14133  -0.07818   0.13485   0.05521
  57        3PZ         0.07261  -0.06337   0.14291  -0.19443  -0.16321
  58        4S         -0.09523   0.04136   0.00657   0.04454   0.06589
  59        4PX         0.00851   0.00392  -0.01206   0.01863   0.02117
  60        4PY         0.02123  -0.01764  -0.02410   0.02703   0.01910
  61        4PZ         0.00521  -0.00661   0.02652  -0.03220  -0.08260
  62        5XX         0.00515  -0.00837  -0.01294  -0.00020   0.00270
  63        5YY        -0.01110   0.01736   0.00933  -0.00107  -0.00110
  64        5ZZ         0.01083  -0.01094   0.01693  -0.01337  -0.01482
  65        5XY         0.00809  -0.01299  -0.00626  -0.00536  -0.00621
  66        5XZ        -0.01416   0.00588   0.00376   0.01301  -0.01483
  67        5YZ         0.00354  -0.01085  -0.01085   0.01752  -0.00653
  68 6   H  1S          0.07173  -0.09292   0.08047  -0.04631  -0.11682
  69        2S          0.05689  -0.07677   0.06515  -0.03304  -0.15727
  70        3PX        -0.00557   0.00630   0.00354   0.00422  -0.00002
  71        3PY         0.00210  -0.00375  -0.00609   0.00730   0.00440
  72        3PZ        -0.00169   0.00271   0.00114  -0.00366  -0.00217
  73 7   Cl 1S          0.00127  -0.00175   0.00035  -0.00044  -0.00009
  74        2S         -0.00670   0.00916  -0.00111   0.00232   0.00121
  75        2PX         0.05038  -0.08679  -0.03591   0.01284   0.00541
  76        2PY        -0.06063   0.02169  -0.19797  -0.15793   0.00393
  77        2PZ        -0.15507  -0.16338   0.09141  -0.07224   0.13257
  78        3S          0.01116  -0.01586   0.00476  -0.00338   0.00112
  79        3PX        -0.12983   0.22505   0.09378  -0.03514  -0.01464
  80        3PY         0.15858  -0.05693   0.52152   0.41780  -0.01074
  81        3PZ         0.40521   0.42734  -0.24106   0.19128  -0.35748
  82        4S          0.03655  -0.04608   0.00214  -0.03323  -0.02656
  83        4PX        -0.03622   0.07225   0.03510  -0.02455  -0.01949
  84        4PY         0.06633  -0.02374   0.25525   0.22021  -0.00761
  85        4PZ         0.17083   0.19259  -0.11484   0.10248  -0.24822
  86        5S          0.02219  -0.01461   0.03342  -0.07996  -0.03673
  87        5PX         0.00151   0.00359   0.01546  -0.02658  -0.01443
  88        5PY         0.00302  -0.00306   0.02044   0.02904  -0.00205
  89        5PZ         0.01361   0.01300  -0.01025   0.01305  -0.07449
  90        6XX        -0.01091   0.01770   0.00594  -0.00374   0.00239
  91        6YY         0.00410  -0.00668  -0.00354   0.00193   0.00117
  92        6ZZ         0.00333  -0.00566  -0.00195   0.00196  -0.00191
  93        6XY         0.00810  -0.00260   0.00743  -0.00442   0.00150
  94        6XZ         0.02125   0.01919  -0.00300  -0.00287   0.04770
  95        6YZ        -0.00003  -0.00063   0.00128  -0.00049  -0.00186
                          21        22        23        24        25
                           V         V         V         V         V
     Eigenvalues --    -0.00783   0.02004   0.03108   0.04080   0.05142
   1 1   C  1S          0.03398  -0.02718   0.03424   0.02289   0.00336
   2        2S         -0.09989   0.11481  -0.09166  -0.05801   0.00704
   3        2PX         0.14673   0.08559  -0.02121  -0.05913  -0.00619
   4        2PY         0.03473  -0.05772  -0.05816   0.01906  -0.06032
   5        2PZ        -0.01465   0.05174   0.03660   0.01320  -0.14751
   6        3S         -0.06770  -0.10854  -0.12754   0.00359  -0.06693
   7        3PX         0.15822   0.20419  -0.10765  -0.06912  -0.03062
   8        3PY         0.12711  -0.19940  -0.09696   0.09683  -0.10732
   9        3PZ        -0.00828   0.03857   0.03957   0.00584  -0.05462
  10        4S          1.30843  -3.46950  -0.38397  -0.79800  -0.80521
  11        4PX         0.10071   0.52889  -0.45036   1.55920  -0.05739
  12        4PY         0.52387  -0.64082  -1.55177  -0.52001  -0.38887
  13        4PZ         0.02823  -0.28796  -0.06522  -0.03613   1.47875
  14        5XX         0.01497   0.00268  -0.00680   0.01353  -0.00096
  15        5YY        -0.01250  -0.00279   0.01982  -0.00053   0.00316
  16        5ZZ         0.00216  -0.00215  -0.00673  -0.00725  -0.00107
  17        5XY         0.00264   0.00725   0.00555  -0.01213   0.00241
  18        5XZ        -0.00052  -0.00095  -0.00107   0.00109   0.00270
  19        5YZ         0.00142   0.00306  -0.00079   0.00128  -0.00865
  20 2   H  1S          0.00939  -0.00904  -0.00789  -0.00329   0.00301
  21        2S         -0.01890   0.06419  -0.08746  -0.01153   0.27612
  22        3PX         0.00582  -0.00100  -0.00010   0.00726  -0.00490
  23        3PY         0.00178   0.00327  -0.00965  -0.00474   0.00518
  24        3PZ        -0.00204   0.00597  -0.00230  -0.00229   0.01193
  25 3   H  1S          0.00278  -0.00518  -0.00823  -0.00399  -0.01034
  26        2S         -0.06777   0.19137  -0.00421   0.03877  -0.16452
  27        3PX         0.00668  -0.00304  -0.00166   0.00677   0.00306
  28        3PY         0.00176   0.00442  -0.00831  -0.00366  -0.00597
  29        3PZ         0.00318  -0.01260  -0.00007   0.00083   0.00849
  30 4   N  1S         -0.10739  -0.03209  -0.01469  -0.00657  -0.00841
  31        2S          0.22963   0.08580   0.03909   0.04040   0.02854
  32        2PX        -0.19116  -0.10107  -0.08298   0.07803  -0.02826
  33        2PY         0.01791  -0.01373   0.05017  -0.03556   0.02255
  34        2PZ         0.01623  -0.01344  -0.01558   0.00268   0.01650
  35        3S          0.79484   0.27344   0.05843  -0.00877   0.05644
  36        3PX        -0.24808  -0.05639  -0.13972  -0.02728  -0.05353
  37        3PY         0.03212  -0.04388  -0.01306   0.00495   0.00801
  38        3PZ         0.02281  -0.02825  -0.02242   0.00857   0.07331
  39        4S          1.53427   0.65036  -0.02289   2.23707  -0.00246
  40        4PX        -0.19098  -0.94736  -0.69105  -0.65459  -0.92600
  41        4PY         0.24045  -0.95997   0.62113  -0.11310  -0.14218
  42        4PZ        -0.08661   0.25116   0.09598   0.06540  -0.56517
  43        5XX        -0.02128   0.01162  -0.00064   0.00965   0.00543
  44        5YY        -0.00463   0.00670   0.00309   0.00254   0.00267
  45        5ZZ         0.00039  -0.00518  -0.00091  -0.00077  -0.00120
  46        5XY        -0.00295  -0.00241   0.00314   0.00482  -0.00109
  47        5XZ        -0.00050   0.00288   0.00241   0.00129  -0.00678
  48        5YZ         0.00094  -0.00102   0.00059   0.00050  -0.00022
  49 5   N  1S          0.03473  -0.01530  -0.03351  -0.00171  -0.01194
  50        2S         -0.08860   0.05006   0.09338   0.00988   0.04023
  51        2PX         0.12550   0.02808   0.10832  -0.03506   0.02817
  52        2PY         0.03857   0.06888  -0.08453   0.03152  -0.01476
  53        2PZ        -0.03774   0.05888   0.07556   0.02535  -0.04130
  54        3S         -0.21398   0.06522   0.21562   0.02349   0.04694
  55        3PX         0.13267   0.04095   0.07634  -0.01731   0.02524
  56        3PY         0.05439   0.02064  -0.09800   0.03007  -0.04621
  57        3PZ        -0.06230   0.13400   0.11100  -0.02778  -0.03254
  58        4S         -1.48747   3.74927   1.70223  -0.37187   1.89944
  59        4PX         0.16861  -0.40725   0.33146   0.15527  -0.03262
  60        4PY         0.32465  -0.80237  -0.60546   0.26948  -0.57276
  61        4PZ        -0.00956   0.10662  -0.07012  -0.16790  -0.09956
  62        5XX         0.01444   0.00244   0.00497   0.00297   0.00409
  63        5YY        -0.00922   0.00387  -0.00425  -0.00136   0.00365
  64        5ZZ         0.00155   0.00293   0.00233  -0.00351  -0.00266
  65        5XY        -0.00140  -0.00522   0.00282   0.00765   0.00175
  66        5XZ         0.00478   0.00123   0.00290  -0.00226   0.00210
  67        5YZ         0.00288  -0.00176  -0.00624  -0.00182   0.00681
  68 6   H  1S          0.00798  -0.01394  -0.01727  -0.00626   0.00272
  69        2S          0.08319  -0.21914  -0.08965   0.18510  -0.00336
  70        3PX         0.00581   0.00025   0.00263   0.00072   0.00201
  71        3PY         0.00068   0.00119  -0.00723  -0.00157  -0.00028
  72        3PZ         0.00385  -0.00714  -0.00729  -0.00592   0.00109
  73 7   Cl 1S         -0.02169   0.00058  -0.00691   0.01324   0.00285
  74        2S          0.10384   0.00692   0.03590  -0.05004  -0.00826
  75        2PX         0.16270   0.04906   0.02832   0.00118   0.01688
  76        2PY         0.00153   0.00398  -0.02907  -0.00230  -0.00373
  77        2PZ        -0.00151  -0.01436  -0.00745  -0.00682   0.03220
  78        3S         -0.21932   0.03073  -0.06368   0.17155   0.04371
  79        3PX        -0.44968  -0.12146  -0.08086   0.01193  -0.03893
  80        3PY        -0.00343  -0.01510   0.08020   0.00432   0.00897
  81        3PZ         0.00352   0.03867   0.01976   0.01675  -0.08683
  82        4S         -0.54455  -0.18903  -0.29724  -0.02850  -0.06617
  83        4PX        -0.52762  -0.30809  -0.11265  -0.26439  -0.17416
  84        4PY        -0.01392   0.05598   0.07506   0.02856   0.03009
  85        4PZ         0.01363   0.04641   0.03003   0.04310  -0.11157
  86        5S         -0.72957  -1.11487  -0.56890  -0.92842  -1.17580
  87        5PX        -0.74180  -0.47512  -0.47522   0.26695  -0.33338
  88        5PY        -0.03280   0.17655  -0.25264  -0.06173  -0.00527
  89        5PZ         0.04102  -0.09258  -0.04831  -0.07318   0.39679
  90        6XX         0.09173   0.05560   0.02941  -0.00440   0.01967
  91        6YY        -0.03570  -0.01759  -0.00458   0.00301  -0.00784
  92        6ZZ        -0.02835  -0.02112  -0.00942   0.00113  -0.00789
  93        6XY         0.00025  -0.00589   0.00207  -0.00499   0.00154
  94        6XZ        -0.00236  -0.00659  -0.00504  -0.00029   0.00235
  95        6YZ         0.00063   0.00098  -0.00074  -0.00050  -0.00589
                          26        27        28        29        30
                           V         V         V         V         V
     Eigenvalues --     0.07991   0.09970   0.10098   0.11570   0.12057
   1 1   C  1S          0.00244  -0.01995  -0.02574  -0.02889  -0.01323
   2        2S         -0.04458   0.04040   0.05565   0.10769   0.02314
   3        2PX        -0.03396  -0.08399  -0.06029   0.11993  -0.12015
   4        2PY        -0.06712  -0.03437  -0.01359   0.08153  -0.13069
   5        2PZ         0.01640  -0.05787   0.06677  -0.02225   0.02317
   6        3S          0.23860   0.16890   0.20835  -0.07286   0.26798
   7        3PX        -0.20387  -0.04793   0.00809   0.35140  -0.14422
   8        3PY         0.01488  -0.06996  -0.08381  -0.09210  -0.26559
   9        3PZ         0.01075  -0.06766   0.10379  -0.06146   0.01589
  10        4S          3.13618   0.60502  -0.68304  -6.79076   0.69087
  11        4PX        -1.66669   0.35727   0.65610   2.04845  -0.81363
  12        4PY         1.02998   0.58603   0.02976  -1.97089  -0.55404
  13        4PZ        -0.22505   0.56574  -0.54828   0.21965  -0.12782
  14        5XX        -0.00883  -0.00462  -0.00285   0.01327  -0.01681
  15        5YY        -0.00561  -0.00262  -0.00425  -0.00852   0.01127
  16        5ZZ         0.00474  -0.00223  -0.00419  -0.00531  -0.00903
  17        5XY         0.00275  -0.00349  -0.00328  -0.00100   0.00143
  18        5XZ        -0.00069   0.00270  -0.00176   0.00180   0.00114
  19        5YZ         0.00059  -0.00163   0.00273   0.00046  -0.00213
  20 2   H  1S          0.00637  -0.00578  -0.00458  -0.03080  -0.02154
  21        2S          0.16307   0.01802  -0.09780  -0.26457  -0.04823
  22        3PX        -0.00441  -0.00277   0.00222   0.00295  -0.00660
  23        3PY         0.00120   0.00294  -0.00107   0.00239  -0.00763
  24        3PZ        -0.00214   0.00362  -0.00145   0.00556   0.00316
  25 3   H  1S          0.00994   0.00262  -0.01398  -0.02409  -0.01166
  26        2S          0.18150  -0.06923  -0.04486  -0.25930  -0.03828
  27        3PX        -0.00479   0.00202  -0.00227   0.00498  -0.00536
  28        3PY         0.00204  -0.00112   0.00217   0.00289  -0.00612
  29        3PZ         0.00062   0.00257  -0.00507  -0.00468  -0.00284
  30 4   N  1S         -0.02180   0.03810   0.02332  -0.03233   0.00154
  31        2S          0.04006  -0.04908  -0.01799   0.06851   0.02201
  32        2PX        -0.02755   0.08752   0.07506  -0.00300   0.02264
  33        2PY         0.12381   0.00766   0.02429  -0.01512   0.19026
  34        2PZ        -0.00190   0.01176  -0.01842   0.00360  -0.00343
  35        3S          0.18085  -0.44560  -0.31668   0.29775  -0.09097
  36        3PX        -0.18766   0.21416   0.15130  -0.02982  -0.03928
  37        3PY         0.13145   0.01848   0.01417  -0.11430   0.25285
  38        3PZ        -0.00872  -0.00191   0.00755   0.00153   0.00181
  39        4S          0.93843   2.93264   3.83748   1.93337   3.69546
  40        4PX        -0.90510   0.11961   1.15126   4.91838  -0.21210
  41        4PY         1.58312   0.54644   0.94597   0.53944   0.56002
  42        4PZ        -0.01322   0.12789  -0.47300  -0.28074  -0.38989
  43        5XX        -0.00945   0.01949   0.01531  -0.01334   0.01165
  44        5YY        -0.00673   0.00898   0.00690  -0.00300  -0.00118
  45        5ZZ         0.00458   0.00465   0.00376  -0.00246  -0.00222
  46        5XY        -0.01298  -0.00482  -0.01028  -0.01720  -0.01476
  47        5XZ        -0.00012  -0.00536   0.00875  -0.00076   0.00005
  48        5YZ         0.00156   0.00020  -0.00019   0.00044   0.00136
  49 5   N  1S          0.01401  -0.00790  -0.00047   0.03576   0.01218
  50        2S         -0.05427   0.01035  -0.01035  -0.06605  -0.04665
  51        2PX         0.08609  -0.05787  -0.01983   0.03405   0.12164
  52        2PY        -0.01663   0.01892   0.03239   0.07419  -0.15379
  53        2PZ        -0.03603   0.02220   0.00142  -0.03096  -0.03710
  54        3S          0.00032   0.10044   0.06815  -0.37236   0.06091
  55        3PX         0.07603  -0.02114   0.00140  -0.02750   0.10804
  56        3PY        -0.02557   0.03315   0.02114   0.01282  -0.34419
  57        3PZ        -0.08500   0.01321  -0.00289   0.05894  -0.06007
  58        4S         -2.83294  -2.37575  -3.23674  -1.42621  -1.65160
  59        4PX         1.03447   0.31455   0.80814   0.93475   1.42384
  60        4PY         0.12345   0.53650   0.98113   1.19573   1.44946
  61        4PZ        -0.03048  -0.39369   0.16529   0.39045   0.54878
  62        5XX         0.00542  -0.00626  -0.00109   0.01514   0.00689
  63        5YY        -0.01030  -0.00155   0.00208   0.02241   0.01273
  64        5ZZ        -0.00091  -0.00369  -0.00742   0.00038  -0.01371
  65        5XY         0.01000   0.00363   0.00508  -0.00030   0.01752
  66        5XZ         0.00301  -0.00109  -0.00241   0.00152   0.00416
  67        5YZ         0.00143   0.00098  -0.00164   0.00124  -0.00675
  68 6   H  1S          0.01971   0.00227  -0.01220  -0.00353   0.00807
  69        2S          0.17378   0.10496  -0.07475  -0.41368  -0.15494
  70        3PX         0.00607   0.00154   0.00045   0.00357   0.01104
  71        3PY        -0.00192  -0.00040   0.00353   0.01345   0.00727
  72        3PZ         0.00390  -0.00231  -0.00207   0.00200   0.00197
  73 7   Cl 1S          0.00501   0.00384   0.00271  -0.00869   0.00539
  74        2S         -0.02134  -0.01516  -0.01014   0.02890  -0.02275
  75        2PX         0.05465  -0.08753  -0.05802   0.04640  -0.01911
  76        2PY        -0.02773  -0.02250  -0.01979  -0.01588   0.03537
  77        2PZ        -0.00805  -0.03568   0.04657  -0.01141  -0.00652
  78        3S          0.06175   0.04535   0.03349  -0.12238   0.06454
  79        3PX        -0.13935   0.23793   0.15795  -0.13908   0.05619
  80        3PY         0.07119   0.05378   0.04818   0.03728  -0.08972
  81        3PZ         0.01959   0.08441  -0.11316   0.02757   0.01388
  82        4S          0.02848   0.01152   0.01208   0.19628   0.09814
  83        4PX        -0.47286   0.46875   0.31300   0.00765   0.00035
  84        4PY         0.13492   0.16970   0.13848   0.15054  -0.23472
  85        4PZ         0.06305   0.28847  -0.34819   0.09056   0.08154
  86        5S         -2.66471  -0.80988   0.53229   7.25262  -2.22334
  87        5PX        -0.30153  -1.29849  -0.36564   3.42416  -1.20031
  88        5PY        -0.87195  -0.74436  -0.86030  -0.92900   0.58360
  89        5PZ        -0.13421  -0.89792   1.22730  -0.28644  -0.04824
  90        6XX         0.01488  -0.01793  -0.01656  -0.01174   0.01462
  91        6YY        -0.02075   0.01055   0.00941   0.00270  -0.00463
  92        6ZZ        -0.00621   0.01594   0.01400  -0.00218  -0.01379
  93        6XY         0.03447   0.01747   0.02518   0.02342   0.02299
  94        6XZ         0.00110   0.01788  -0.02401   0.00428  -0.00043
  95        6YZ         0.00110  -0.00449   0.00419   0.00248   0.00401
                          31        32        33        34        35
                           V         V         V         V         V
     Eigenvalues --     0.13714   0.15260   0.18179   0.20289   0.20746
   1 1   C  1S         -0.00690   0.03293   0.00508   0.00030   0.01697
   2        2S          0.02647  -0.01769  -0.03797   0.00976  -0.03166
   3        2PX         0.09791  -0.12861   0.19210   0.03812   0.08288
   4        2PY         0.22399  -0.21333   0.01977   0.05238  -0.08707
   5        2PZ        -0.00967   0.02988   0.02783  -0.05779  -0.03174
   6        3S         -0.00780  -0.66333   0.17187  -0.15652  -0.10030
   7        3PX         0.05226  -0.25979   0.35100   0.12658   0.23607
   8        3PY         0.31391  -0.56467  -0.02443   0.11703  -0.27747
   9        3PZ        -0.12512   0.00793   0.12777  -0.23205  -0.17361
  10        4S          2.62901  -3.47389   1.05292  -2.61766   0.78258
  11        4PX        -1.34675   1.46929  -0.82829  -0.35550   1.00079
  12        4PY        -0.16590  -0.23350   0.43853  -1.60021   1.20482
  13        4PZ        -0.60800  -0.57849   0.23784  -0.48366  -0.75913
  14        5XX         0.00904   0.00156   0.01636   0.01016  -0.00753
  15        5YY        -0.01428   0.01447  -0.00423  -0.01226   0.01587
  16        5ZZ         0.00493   0.00546  -0.01521   0.00590  -0.00660
  17        5XY        -0.00527   0.01019   0.00559  -0.00491   0.01424
  18        5XZ         0.00262   0.00129   0.00114  -0.00168  -0.00202
  19        5YZ         0.00000  -0.00495   0.00620  -0.00825  -0.00937
  20 2   H  1S         -0.00108  -0.01318  -0.01707  -0.01446  -0.03540
  21        2S          0.09937  -0.21985  -0.02120  -0.08475  -0.32716
  22        3PX         0.00422  -0.00241   0.00113   0.00719   0.00138
  23        3PY         0.00264  -0.00618   0.00188   0.00478  -0.00314
  24        3PZ        -0.00341  -0.00058   0.00299   0.00100   0.00283
  25 3   H  1S          0.01935   0.00489  -0.03808   0.01064  -0.00848
  26        2S          0.25964  -0.12445  -0.26082   0.23568  -0.09708
  27        3PX         0.00499  -0.00099   0.00640  -0.00327  -0.00659
  28        3PY         0.00980  -0.00091   0.00318   0.00250  -0.00469
  29        3PZ        -0.00011  -0.00009  -0.00416   0.00078   0.00003
  30 4   N  1S          0.01144   0.00941  -0.00005   0.00351   0.01905
  31        2S         -0.02203  -0.00014  -0.01395   0.03147  -0.05237
  32        2PX         0.01528   0.00331   0.00372   0.11343  -0.17238
  33        2PY        -0.15908   0.12428  -0.11363   0.00289  -0.10641
  34        2PZ         0.02868  -0.00182   0.05490  -0.12219  -0.09419
  35        3S         -0.11411  -0.19774   0.09889  -0.25382  -0.11449
  36        3PX         0.04126   0.06042  -0.08602   0.20877  -0.32109
  37        3PY        -0.31276   0.21535  -0.28964  -0.07178  -0.22117
  38        3PZ         0.03401  -0.02395   0.13708  -0.27887  -0.21850
  39        4S         -5.17763  -3.33939  -3.32779   4.62878  -0.01253
  40        4PX        -4.25949   0.77790  -3.39231  -0.09981  -0.04058
  41        4PY        -0.76011  -1.51389  -2.00434   1.56327  -2.04132
  42        4PZ        -0.02043  -0.08966  -0.86580   2.13135   2.04443
  43        5XX         0.00785  -0.00334  -0.01243   0.00007  -0.00014
  44        5YY        -0.00233   0.01286   0.00592   0.00345   0.00952
  45        5ZZ        -0.00140   0.00903  -0.00857   0.01647  -0.00648
  46        5XY         0.00336  -0.00114   0.02964  -0.00716   0.02698
  47        5XZ        -0.00740  -0.00632   0.00388  -0.00989  -0.01148
  48        5YZ        -0.00201  -0.00049   0.00025  -0.00097  -0.00294
  49 5   N  1S          0.02164  -0.02617  -0.04176   0.04769  -0.05827
  50        2S         -0.02499   0.05578   0.03568  -0.07188   0.08622
  51        2PX        -0.16591   0.12492  -0.23690  -0.05996  -0.09841
  52        2PY         0.10686  -0.12299   0.03121   0.09228  -0.22575
  53        2PZ        -0.17249  -0.13164   0.05933  -0.06597   0.02505
  54        3S         -0.33613   0.16736   0.76310  -0.68809   0.87152
  55        3PX        -0.21130   0.19276  -0.53296  -0.22961  -0.12941
  56        3PY         0.10539  -0.16170   0.00313   0.16431  -0.49419
  57        3PZ        -0.21634  -0.17280   0.13435  -0.14587   0.01473
  58        4S          7.84640   4.19112   4.52827  -0.73397  -0.19182
  59        4PX        -1.86327  -0.99622   0.24895   2.47875  -1.69408
  60        4PY        -1.67919  -1.45204  -0.85415  -0.47116   1.08760
  61        4PZ         1.57395   1.56362   0.75514  -0.83513  -0.43374
  62        5XX        -0.00095   0.00379  -0.00348   0.02433  -0.02584
  63        5YY         0.01711  -0.01118  -0.01807   0.00573  -0.00145
  64        5ZZ         0.00319  -0.00788  -0.02489   0.01004  -0.01732
  65        5XY        -0.00911   0.00369   0.00640   0.01091  -0.00780
  66        5XZ        -0.00148   0.00941  -0.00944  -0.00563  -0.00491
  67        5YZ         0.01352   0.00733  -0.00584   0.01183  -0.00421
  68 6   H  1S          0.04089   0.02389  -0.05620   0.04650  -0.00236
  69        2S         -0.34012  -0.41999  -0.52671   0.51016   0.00107
  70        3PX        -0.00502   0.00706   0.00325   0.00118  -0.01166
  71        3PY         0.01194  -0.00180   0.00016   0.00130  -0.00323
  72        3PZ         0.01226   0.00920  -0.00452   0.00176  -0.00106
  73 7   Cl 1S          0.00666  -0.00534  -0.00309  -0.00111  -0.00292
  74        2S         -0.02731   0.02007   0.02445   0.01212   0.01453
  75        2PX        -0.02130   0.00133   0.00294  -0.01918   0.02634
  76        2PY        -0.01559   0.00823  -0.03845   0.01395  -0.04353
  77        2PZ         0.00173  -0.00063  -0.00281   0.01295   0.01257
  78        3S          0.08131  -0.07164  -0.00814   0.00368  -0.02898
  79        3PX         0.06653  -0.00817  -0.01187   0.05595  -0.06839
  80        3PY         0.04031  -0.02646   0.09774  -0.03361   0.11282
  81        3PZ        -0.00664  -0.00051   0.00326  -0.02907  -0.02697
  82        4S          0.06430  -0.03352  -0.62340  -0.42579  -0.08420
  83        4PX         0.00742   0.14755  -0.11247   0.06503  -0.29905
  84        4PY         0.11742   0.02662   0.32173  -0.15841   0.36372
  85        4PZ         0.02258   0.03329   0.08031  -0.17202  -0.17857
  86        5S         -5.01783   3.42546  -1.83167  -0.18852  -0.58284
  87        5PX        -2.30908   1.48769  -0.41356  -0.07088  -0.24817
  88        5PY        -0.02944   0.09181   0.67287   0.26676  -0.20248
  89        5PZ        -0.01876  -0.13201   0.23297  -0.67279  -0.53111
  90        6XX         0.01193  -0.01889  -0.01825  -0.03681   0.04202
  91        6YY         0.00616   0.01129   0.02585   0.01914  -0.00757
  92        6ZZ        -0.01926   0.01033   0.01238   0.03601  -0.03098
  93        6XY        -0.01613   0.01678  -0.08742  -0.00263  -0.05493
  94        6XZ         0.01212   0.01066  -0.00582   0.03291   0.02831
  95        6YZ         0.00998   0.01266   0.00552  -0.00240  -0.00130
                          36        37        38        39        40
                           V         V         V         V         V
     Eigenvalues --     0.23435   0.24377   0.27290   0.27570   0.28667
   1 1   C  1S         -0.07043   0.08770   0.01421  -0.03164  -0.04477
   2        2S          0.04362  -0.08968  -0.03506   0.03779   0.03164
   3        2PX         0.00503  -0.02608  -0.10364   0.07507   0.00764
   4        2PY        -0.07514   0.09485   0.15687   0.00723   0.09553
   5        2PZ         0.02770  -0.04717   0.20833   0.26151  -0.24544
   6        3S          1.57294  -1.93366  -0.23314   0.54007   1.00447
   7        3PX        -0.24613  -0.08758  -0.44083   0.18038  -0.12317
   8        3PY        -0.36439   0.38420   0.61217   0.15204   0.46208
   9        3PZ         0.09913  -0.10822   0.80613   1.03982  -1.05535
  10        4S          3.09592  -7.66674   0.27962   0.18227   3.52761
  11        4PX        -0.74716   2.32584   0.01208   0.10787  -0.62899
  12        4PY         0.26378  -1.45475   0.56044  -0.41801   0.67734
  13        4PZ         0.22412   0.33932   0.30909   0.73410  -0.78325
  14        5XX         0.00516  -0.00443   0.00447  -0.00743  -0.00071
  15        5YY        -0.01066   0.00498  -0.00738   0.00932  -0.00635
  16        5ZZ        -0.02346   0.03394   0.00479  -0.00036  -0.00052
  17        5XY         0.01620   0.00616  -0.00479   0.01064   0.00712
  18        5XZ        -0.00427   0.00087  -0.01114  -0.01221   0.01331
  19        5YZ        -0.00247  -0.00122   0.02471   0.01892  -0.00695
  20 2   H  1S         -0.09455   0.05675   0.10728   0.02884  -0.06472
  21        2S         -0.50217   0.73415   1.86573   0.72611  -1.06599
  22        3PX         0.00156  -0.00717   0.00313  -0.00116  -0.00788
  23        3PY         0.00511   0.00275  -0.00253  -0.00607   0.00297
  24        3PZ         0.00431  -0.00769  -0.00241   0.00140  -0.00128
  25 3   H  1S         -0.10239   0.06696  -0.02267  -0.10008   0.04216
  26        2S         -0.61278   1.09316  -0.41432  -1.78560   1.16220
  27        3PX         0.00050  -0.00338  -0.00499  -0.00765   0.00015
  28        3PY         0.00211   0.00181   0.00879   0.00325  -0.00106
  29        3PZ        -0.00631   0.00696   0.00466   0.00003   0.00084
  30 4   N  1S          0.01767   0.03761  -0.02314   0.05731   0.02044
  31        2S         -0.03480  -0.01389   0.04367  -0.05269   0.00000
  32        2PX         0.00612  -0.01309   0.10380  -0.11890   0.01219
  33        2PY         0.11035   0.02282   0.15890  -0.10341   0.08780
  34        2PZ         0.00745   0.07064  -0.14961  -0.06364   0.01564
  35        3S         -0.30390  -0.91776   0.21364  -1.15376  -0.62096
  36        3PX        -0.16027   0.11352   0.17950  -0.23626   0.01094
  37        3PY         0.25196   0.04401   0.46575  -0.22704   0.35766
  38        3PZ         0.00058   0.18558  -0.44666  -0.16676   0.11052
  39        4S        -13.29485   7.73646  -9.15049  17.40522   7.76364
  40        4PX       -11.12088   2.17888  -4.49778   3.58683  -2.96267
  41        4PY        -3.98806  -1.74622  -3.67113   4.58448   1.34136
  42        4PZ         0.53284  -0.55406   0.91549  -0.78451  -0.04477
  43        5XX        -0.01630   0.00124  -0.00506   0.00490  -0.00084
  44        5YY         0.01646   0.01720  -0.00248   0.02529   0.02257
  45        5ZZ         0.00543   0.03927  -0.00667   0.03926   0.02177
  46        5XY        -0.01587   0.01075  -0.01532   0.00725  -0.01632
  47        5XZ         0.00289  -0.00310   0.02032   0.01729  -0.00562
  48        5YZ        -0.00429   0.00106  -0.00402  -0.00744   0.01733
  49 5   N  1S          0.05739   0.03939   0.01399  -0.02429  -0.01197
  50        2S         -0.09276  -0.02505  -0.02908   0.03235  -0.01599
  51        2PX         0.04373  -0.02585   0.17810  -0.07641   0.14310
  52        2PY        -0.03863  -0.11164   0.19827  -0.04731   0.17394
  53        2PZ        -0.01899  -0.06237   0.08476  -0.03059   0.14188
  54        3S         -0.75822  -0.85277  -0.20843   0.36098   0.36002
  55        3PX         0.03875  -0.03892   0.38432  -0.10635   0.35584
  56        3PY        -0.23613  -0.23785   0.46542  -0.06804   0.55203
  57        3PZ         0.09397  -0.09937   0.27316  -0.19935   0.30287
  58        4S         19.94477   0.72988  11.38541 -14.87249  -4.54902
  59        4PX        -4.47851   0.34381  -3.01813   3.93795   0.95313
  60        4PY        -4.55380   0.79823  -1.87725   2.90615   1.09221
  61        4PZ         0.15999  -0.24029   0.53871  -0.47478   0.58860
  62        5XX         0.02523   0.01070   0.00946  -0.00799  -0.00751
  63        5YY         0.01582   0.01821  -0.00270  -0.01121  -0.01465
  64        5ZZ         0.02451   0.03068  -0.00642  -0.00576  -0.02091
  65        5XY        -0.00970   0.00285   0.00082  -0.01423  -0.01569
  66        5XZ         0.00279   0.00012   0.00725   0.00355  -0.00293
  67        5YZ        -0.00316   0.00117  -0.01389  -0.01386   0.00762
  68 6   H  1S          0.03154   0.05982  -0.09974  -0.03158  -0.09898
  69        2S          0.11812   0.55671  -1.34299   0.22245  -0.98983
  70        3PX         0.00120   0.00073   0.00891  -0.00751  -0.00629
  71        3PY         0.00428  -0.00072   0.00380  -0.00977   0.00363
  72        3PZ         0.00912   0.00630  -0.00259  -0.00023  -0.00726
  73 7   Cl 1S         -0.00598  -0.00693  -0.00123  -0.00592  -0.00861
  74        2S          0.04584   0.02291   0.00483   0.02771   0.04581
  75        2PX         0.01202   0.00544  -0.00229   0.01672   0.01855
  76        2PY         0.00748  -0.02226  -0.00058   0.01165   0.02014
  77        2PZ        -0.00134   0.00313  -0.01091  -0.01609   0.00712
  78        3S         -0.02066  -0.10383  -0.01607  -0.06747  -0.08284
  79        3PX        -0.03090  -0.00825   0.00221  -0.03364  -0.04051
  80        3PY        -0.03219   0.05670  -0.00541  -0.02341  -0.05409
  81        3PZ         0.00360  -0.01079   0.03232   0.04344  -0.02206
  82        4S         -1.26747  -0.11533  -0.15791  -0.41514  -0.94058
  83        4PX        -0.39520  -0.04636   0.09541  -0.44993  -0.49960
  84        4PY         0.17389   0.22577   0.15921  -0.27002  -0.17971
  85        4PZ         0.00911   0.00350   0.04279   0.13823  -0.01942
  86        5S         -8.05507   1.50560  -2.10118  -1.58147  -5.87635
  87        5PX        -2.89226   0.40127  -0.74745  -0.78187  -2.24487
  88        5PY         0.54613   0.02652   0.42618  -0.47124   0.07488
  89        5PZ         0.10979   0.29190  -0.39872  -0.07282   0.14650
  90        6XX        -0.01775  -0.02024  -0.02871   0.00812  -0.01961
  91        6YY         0.05231   0.01227   0.03038  -0.02384   0.01561
  92        6ZZ         0.00195   0.00982  -0.00224   0.02849   0.02654
  93        6XY         0.03156  -0.02671   0.03481  -0.00309   0.05036
  94        6XZ        -0.00898   0.00030  -0.02765  -0.02885   0.01606
  95        6YZ        -0.01209  -0.00110  -0.00743  -0.00232   0.01536
                          41        42        43        44        45
                           V         V         V         V         V
     Eigenvalues --     0.32793   0.34542   0.39584   0.58416   0.64092
   1 1   C  1S          0.11203  -0.01814   0.04081   0.02426   0.00025
   2        2S         -0.17399   0.00947   0.02403   0.17649   0.00561
   3        2PX         0.04639  -0.22492   0.06858  -0.29734  -0.02514
   4        2PY        -0.16738   0.01753  -0.08122   0.41616   0.00400
   5        2PZ         0.01700  -0.04899  -0.02218  -0.01293  -0.09552
   6        3S         -2.06695   0.57399  -2.14610  -1.14390  -0.05503
   7        3PX         0.67654  -1.57501   1.25070   1.19185   0.05624
   8        3PY        -1.17082   0.39713  -0.99560  -1.29910   0.01680
   9        3PZ         0.04909  -0.26309  -0.09328   0.05917   0.42750
  10        4S          2.05554  -3.24628  -7.07841  -1.42014  -0.13411
  11        4PX        -1.69363   0.03638   1.84211   0.23045   0.09731
  12        4PY         0.00855  -1.52623  -1.19996   0.08133   0.08832
  13        4PZ        -0.07965  -0.08239  -0.08833   0.00217   0.19099
  14        5XX         0.00809  -0.00603   0.01676  -0.00909  -0.00204
  15        5YY        -0.00250   0.00183   0.00167   0.01104   0.00333
  16        5ZZ        -0.02497   0.01877   0.00185  -0.00783  -0.00176
  17        5XY        -0.00485   0.01890   0.01990  -0.00012   0.00158
  18        5XZ         0.00068   0.00063   0.00303   0.00050  -0.00226
  19        5YZ         0.00029   0.00677   0.00666  -0.00122   0.01075
  20 2   H  1S          0.01226   0.02504  -0.08192  -0.13733   0.04616
  21        2S          0.83797   0.22247  -1.80544  -0.28906   0.17935
  22        3PX         0.00765  -0.00691  -0.00294   0.00802  -0.00970
  23        3PY        -0.00477   0.00460  -0.00159  -0.01433  -0.00044
  24        3PZ         0.00612  -0.00835  -0.00545  -0.01081   0.00463
  25 3   H  1S          0.01505   0.02907  -0.07837  -0.12254  -0.06179
  26        2S          0.85973   0.60048  -1.51278  -0.26251  -0.18522
  27        3PX         0.00838  -0.00413   0.00256   0.00703   0.00806
  28        3PY        -0.00544   0.00737   0.00160  -0.01129   0.00113
  29        3PZ        -0.00523   0.00803   0.00504   0.00982   0.00640
  30 4   N  1S         -0.03116   0.07382   0.00078   0.02670   0.00229
  31        2S          0.04557  -0.09111   0.01165  -0.13963   0.00738
  32        2PX         0.13841  -0.29344   0.13732   0.14758   0.00426
  33        2PY        -0.21080  -0.08406   0.03064   0.00562   0.04463
  34        2PZ         0.00079  -0.01161  -0.02889  -0.00516   0.06981
  35        3S          0.69952  -1.61027   0.02637   1.12696  -0.04960
  36        3PX         0.73548  -1.55754   0.92170  -0.10014  -0.05899
  37        3PY        -0.86064  -0.13696  -0.16462  -0.08174  -0.15163
  38        3PZ         0.01738  -0.05371  -0.07371   0.02283  -0.35648
  39        4S         -3.26181  -6.74295   5.94308   4.41187  -0.12312
  40        4PX        -5.78349  -1.02844  12.10057   0.79427   0.17016
  41        4PY         1.02343  -0.02808  -0.20049   0.15326  -0.16369
  42        4PZ         0.02922   0.05549  -0.23237  -0.00417  -0.11291
  43        5XX        -0.01157   0.00346  -0.00543   0.12141   0.00426
  44        5YY         0.00324   0.02210   0.01302  -0.04960   0.00112
  45        5ZZ        -0.00423   0.00361   0.01541  -0.04624   0.00015
  46        5XY         0.01358  -0.00261  -0.00283  -0.04778   0.00790
  47        5XZ         0.00327   0.00126   0.00434   0.00228   0.04693
  48        5YZ         0.00141   0.00427   0.00891   0.00188  -0.00544
  49 5   N  1S         -0.04711  -0.02911   0.02058   0.01170  -0.00227
  50        2S          0.04085   0.05232  -0.01298  -0.06031  -0.02734
  51        2PX         0.05953  -0.20423   0.00325  -0.04167   0.01156
  52        2PY        -0.20363  -0.08951   0.08619   0.08663  -0.00091
  53        2PZ         0.11831   0.15578   0.12615  -0.00399  -0.05626
  54        3S          0.98940   0.46022  -0.56994   0.40610   0.15174
  55        3PX         0.12752  -0.68822   0.22952   0.16908  -0.05807
  56        3PY        -0.68228  -0.28018   0.22013  -0.25516  -0.01999
  57        3PZ         0.43431   0.66080   0.60444   0.09095   0.09964
  58        4S          7.55638   9.70563  -4.64598  -1.72291   0.00350
  59        4PX        -0.59128  -0.22148   0.35296   0.44486  -0.10770
  60        4PY        -1.86707  -2.26318   1.41446   0.23257   0.04723
  61        4PZ         0.68646   1.06970   0.68285  -0.02076   0.00320
  62        5XX        -0.00461   0.00624   0.01691  -0.03871   0.00048
  63        5YY        -0.00917  -0.00053  -0.00135   0.06446  -0.00441
  64        5ZZ        -0.01131   0.01396   0.02884  -0.01414  -0.00609
  65        5XY         0.00640  -0.00866  -0.00378  -0.00393   0.00270
  66        5XZ        -0.00209  -0.01503  -0.00560  -0.00055   0.00310
  67        5YZ        -0.01577  -0.01406  -0.00890  -0.00566  -0.00853
  68 6   H  1S         -0.06305  -0.08768  -0.07205  -0.01824  -0.03971
  69        2S         -1.19355  -2.02595  -2.12458  -0.10700   0.02746
  70        3PX         0.00104  -0.00246  -0.00106  -0.00782   0.01272
  71        3PY        -0.00089  -0.00174   0.00049   0.01655  -0.00002
  72        3PZ         0.00101   0.00933   0.01206   0.00112   0.00356
  73 7   Cl 1S         -0.00686  -0.00159   0.01994  -0.00951   0.00036
  74        2S          0.02351   0.02193  -0.10773   0.04807  -0.00186
  75        2PX         0.01221  -0.00565   0.01838  -0.21028   0.01048
  76        2PY         0.00562   0.01643  -0.01183   0.00810   0.07781
  77        2PZ        -0.00117  -0.00157   0.00115   0.00323   0.27327
  78        3S         -0.10113   0.02223   0.18700  -0.09694   0.00445
  79        3PX        -0.03459   0.01789  -0.09082   0.87407  -0.04558
  80        3PY        -0.02294  -0.05501   0.04260  -0.02783  -0.32700
  81        3PZ         0.00325   0.00524  -0.00166  -0.01407  -1.14405
  82        4S         -0.41222  -0.60480   2.47941  -0.53635   0.02377
  83        4PX         0.06496  -0.54903   1.15406  -1.93950   0.07528
  84        4PY         0.04898  -0.00113  -0.01055   0.04295   0.54065
  85        4PZ         0.00407   0.02108  -0.04980   0.03396   1.79762
  86        5S         -5.59607   1.94636   8.75610  -0.43049   0.21578
  87        5PX        -2.08947   1.09864   2.37594   0.52940   0.04475
  88        5PY        -0.35933  -0.17100  -0.27043  -0.05931  -0.24148
  89        5PZ         0.04358  -0.07383  -0.09510  -0.01429  -0.79714
  90        6XX        -0.06726   0.08249  -0.01484   0.13754  -0.01023
  91        6YY         0.04200  -0.01332  -0.01910  -0.09111   0.00232
  92        6ZZ         0.02583  -0.05403  -0.00181  -0.04922   0.00532
  93        6XY        -0.02895   0.01303  -0.00498   0.03924  -0.06651
  94        6XZ         0.00347  -0.00850   0.00397  -0.00811  -0.20509
  95        6YZ         0.00503   0.00601   0.01635   0.00575  -0.00170
[...]
  49 5   N  1S         -0.02702   0.03902  -0.00163   0.10360   0.09894
  50        2S         -0.38232   0.05098   0.17676  -0.46598  -0.16231
  51        2PX        -0.08177   0.21078   0.02313  -0.03399  -0.11954
  52        2PY        -0.01917   0.14236  -0.00028  -0.03642  -0.28999
  53        2PZ        -0.04570  -0.06023   0.01415  -0.27524  -0.43918
  54        3S          1.67699  -1.38338  -0.57316  -0.67110  -1.35640
  55        3PX        -0.84833   0.96143  -0.20422  -0.09242  -0.20165
  56        3PY        -0.75721   0.28880   0.42883  -0.35209  -0.23388
  57        3PZ         0.75066   0.21570  -0.05041  -0.37090  -0.82577
  58        4S         -0.96068   2.89238   0.34196   1.88081  -0.89495
  59        4PX         0.48211  -0.87193   0.13115  -0.19002   0.19884
  60        4PY         0.26506  -0.56850  -0.13297  -0.32411   0.18739
  61        4PZ        -0.04461   0.04349   0.02664  -0.05727  -0.19786
  62        5XX         0.19917  -0.46168   0.25302   0.50250   0.54239
  63        5YY        -0.30535   0.08511  -0.32880   0.34903   0.49988
  64        5ZZ         0.24520   0.40193   0.00887  -0.15418  -0.61404
  65        5XY         0.34719  -0.77474   0.13251  -0.00334  -0.03379
  66        5XZ        -0.30829  -0.09266  -0.08781  -0.15411  -0.21015
  67        5YZ        -0.49675  -0.30717   0.02586  -0.27243  -0.55147
  68 6   H  1S         -0.12520   0.02714   0.04722   0.44270   0.89035
  69        2S         -0.56971  -0.20525  -0.04833   0.59525   1.09272
  70        3PX         0.28736   0.18929   0.09884  -0.08002  -0.23480
  71        3PY         0.56061   0.31745   0.01498  -0.26363  -0.44695
  72        3PZ        -0.23114  -0.17691   0.01631  -0.60631  -1.03952
  73 7   Cl 1S          0.00010  -0.00737  -0.01668   0.00212   0.00028
  74        2S         -0.02386   0.05096   0.08908   0.00847  -0.00352
  75        2PX        -0.01662   0.02840   0.05675   0.00226   0.00240
  76        2PY         0.00085  -0.00445   0.00469   0.00165   0.00289
  77        2PZ         0.00329   0.00156  -0.00228   0.00094   0.00040
  78        3S         -0.05109  -0.13587  -0.37433   0.09099   0.00278
  79        3PX         0.07021  -0.09099  -0.22473   0.00629  -0.02680
  80        3PY         0.00939   0.00074  -0.00913  -0.00839  -0.01101
  81        3PZ        -0.00530   0.00021   0.00840  -0.00383  -0.00284
  82        4S          0.51472  -0.01239  -0.20920  -0.22973  -0.16119
  83        4PX         0.15675   0.00513  -0.09168   0.00320  -0.05678
  84        4PY         0.07205  -0.05273   0.01315   0.06421  -0.02400
  85        4PZ        -0.02605  -0.00345  -0.00412  -0.00754   0.00838
  86        5S          0.87238  -0.07267   0.11106  -0.57202   0.02829
  87        5PX         0.23874  -0.01271   0.08068  -0.16086   0.02673
  88        5PY        -0.12930   0.10464   0.02354   0.03823   0.02282
  89        5PZ        -0.05457  -0.04273  -0.00560   0.00161   0.00547
  90        6XX         0.05895  -0.07227  -0.10641  -0.02117  -0.00232
  91        6YY        -0.05039   0.13090   0.26800   0.00709  -0.00401
  92        6ZZ        -0.05154   0.14948   0.26675   0.00279  -0.01105
  93        6XY         0.00393   0.02465  -0.03837   0.01102  -0.02317
  94        6XZ        -0.04343  -0.01966   0.01460  -0.00706   0.00320
  95        6YZ         0.00498   0.00507   0.00194   0.00119   0.00432
                          91        92        93        94        95
                           V         V         V         V         V
     Eigenvalues --     3.44640   3.99375   4.10971   4.47019   4.51577
   1 1   C  1S         -0.01647   0.01225  -0.02907   0.08868  -0.50128
   2        2S          0.04993   0.06208   0.06939  -0.45149   2.56590
   3        2PX         0.03599   0.13068   0.01606   0.09382   0.07134
   4        2PY        -0.13234  -0.06547  -0.05398  -0.06092  -0.00740
   5        2PZ        -0.81400   0.00361   0.01191   0.00268   0.00592
   6        3S          0.44923   1.01340  -1.07251  -0.27873   2.80484
   7        3PX        -0.00087  -0.35453   0.22373  -0.00848  -0.25620
   8        3PY         0.01051   0.31826  -0.45956  -0.02665   0.37891
   9        3PZ        -0.62116  -0.06039   0.07197  -0.01415  -0.01206
  10        4S          0.18324  -1.17470   1.82539  -1.07067   2.09201
  11        4PX        -0.01278   0.38931  -0.26128   0.29960  -0.55110
  12        4PY         0.00832  -0.33163   0.67028  -0.16024   0.33914
  13        4PZ        -0.16555   0.03884  -0.11500   0.00934  -0.01207
  14        5XX        -0.06003  -0.27847  -0.10892   0.22416  -1.96942
  15        5YY         0.06821  -0.04564   0.04512   0.28952  -1.94516
  16        5ZZ        -0.04816   0.17769  -0.30423   0.46194  -2.21599
  17        5XY        -0.10641   0.11668   0.06111   0.07419   0.24103
  18        5XZ        -0.82007  -0.01571  -0.00550  -0.01526  -0.01741
  19        5YZ         0.91254   0.03226  -0.05607   0.01747  -0.02417
  20 2   H  1S         -0.72667  -0.10975   0.15907  -0.06148   0.28542
  21        2S         -0.59574  -0.12250   0.17029  -0.25859  -0.14010
  22        3PX         0.32217   0.07746  -0.06897   0.05879  -0.11359
  23        3PY        -0.48936  -0.05583   0.10497  -0.05918   0.15803
  24        3PZ        -0.86821  -0.00778   0.05972  -0.05840   0.32184
  25 3   H  1S          0.56558  -0.09328   0.14021  -0.05324   0.27312
  26        2S          0.46661  -0.10184   0.15709  -0.24603  -0.15025
  27        3PX        -0.22653   0.07007  -0.06329   0.05474  -0.10980
  28        3PY         0.20313  -0.05400   0.11100  -0.04711   0.09201
  29        3PZ        -0.76798   0.01142  -0.07518   0.06486  -0.34411
  30 4   N  1S         -0.00549   0.51063   0.02959   0.13518  -0.00566
  31        2S          0.02353  -0.68314  -0.29823  -0.26244  -0.20687
  32        2PX         0.01178   0.18668  -0.02421   0.07529   0.08813
  33        2PY        -0.02071  -0.01064   0.06342   0.00335  -0.09417
  34        2PZ        -0.03064   0.00099  -0.00035   0.00010   0.00763
  35        3S          0.04772  -4.62414  -0.35355  -1.28342   0.08337
  36        3PX        -0.08738  -0.45695   0.36628  -0.10934   0.41873
  37        3PY         0.07618   0.08406  -0.52839  -0.03017   0.21766
  38        3PZ         0.00689  -0.00571   0.03168  -0.01273  -0.00191
  39        4S          0.13504   5.28761   1.26137   1.57219  -1.34418
  40        4PX        -0.14033   0.43170  -0.19219   2.69738  -1.67737
  41        4PY         0.06388   0.57143   0.44559   0.19394   0.46489
  42        4PZ         0.19032  -0.06110  -0.03928  -0.07887  -0.01782
  43        5XX        -0.03089   1.64124   0.31798   0.70547   0.36859
  44        5YY        -0.01062   1.63434   0.21215   0.35158   0.04222
  45        5ZZ        -0.02619   1.61827   0.09414   0.36583  -0.06032
  46        5XY        -0.02628  -0.03138   0.08428  -0.01243  -0.16449
  47        5XZ        -0.22486   0.01047  -0.03546  -0.01182   0.01879
  48        5YZ         0.08699  -0.00047  -0.02959  -0.00378  -0.00076
  49 5   N  1S          0.02228   0.06987  -0.50767   0.01328   0.03355
  50        2S         -0.00031   0.04984   0.61971   0.03915  -0.13967
  51        2PX        -0.02766   0.06025   0.03887   0.03253   0.02483
  52        2PY        -0.07205   0.00894   0.07127   0.01070  -0.00839
  53        2PZ        -0.08782   0.01886  -0.27968  -0.00258   0.02553
  54        3S         -0.41375  -0.33162   4.53341  -0.00824  -0.78048
  55        3PX        -0.02065  -0.17927  -0.26674  -0.10950   0.08931
  56        3PY         0.04304   0.17735  -0.79586   0.09926   0.24866
  57        3PZ        -0.22915   0.02599  -0.05368   0.09071  -0.19836
  58        4S         -0.37436  -1.88476  -3.54593  -2.02475  -0.32750
  59        4PX         0.05672   0.67408   0.36085   0.27731  -0.03611
  60        4PY         0.06065   0.32582   0.76036   0.45814   0.03520
  61        4PZ        -0.05874  -0.06534   0.02937  -0.00139  -0.12065
  62        5XX         0.11590   0.04316  -1.54587   0.02292   0.09162
  63        5YY         0.15357   0.08118  -1.56485  -0.08101   0.28663
  64        5ZZ        -0.19776   0.29535  -1.98816   0.08617   0.06943
  65        5XY        -0.00926  -0.12423  -0.07682  -0.05500  -0.05690
  66        5XZ        -0.05867   0.04559  -0.11118   0.01462   0.00372
  67        5YZ        -0.01241   0.07221  -0.24793   0.03761  -0.04702
  68 6   H  1S          0.20928  -0.09509   0.42515  -0.04423   0.03823
  69        2S          0.35258   0.01607  -0.04735  -0.16882   0.32804
  70        3PX        -0.04372  -0.02314  -0.06020   0.00054  -0.00688
  71        3PY        -0.23810  -0.02573  -0.15996   0.00122   0.02954
  72        3PZ        -0.19164   0.06478  -0.56496   0.02619  -0.00707
  73 7   Cl 1S          0.00004  -0.04492   0.00008   0.15458   0.02683
  74        2S          0.00183   0.23624   0.00200  -0.79217  -0.12686
  75        2PX         0.00231   0.02398  -0.00427   0.03790   0.00856
  76        2PY         0.00101  -0.00153  -0.00727  -0.00101   0.00221
  77        2PZ         0.00416  -0.00074   0.00140  -0.00129  -0.00043
  78        3S          0.00518  -1.33684   0.00841   5.04026   0.89877
  79        3PX        -0.01408  -0.01132   0.04794  -0.15430  -0.01657
  80        3PY        -0.00316   0.00763   0.02852   0.00407  -0.00332
  81        3PZ        -0.01004   0.00025  -0.00621   0.00542   0.00036
  82        4S         -0.10423  -0.23378   0.16851   1.32702   0.09488
  83        4PX        -0.03716   0.06109   0.13372   0.41437   0.12945
  84        4PY        -0.01477  -0.06447   0.06201  -0.00620  -0.10744
  85        4PZ        -0.03766   0.00653  -0.00762  -0.01208   0.00611
  86        5S         -0.10891  -0.75395  -0.67616   1.57648  -1.48404
  87        5PX        -0.02735  -0.41272  -0.25708   0.49268  -0.51766
  88        5PY         0.01168  -0.06282  -0.03827  -0.06791   0.00379
  89        5PZ        -0.01766   0.01899  -0.00114  -0.01346   0.02526
  90        6XX        -0.00804   0.53033   0.00937  -2.48714  -0.43904
  91        6YY         0.00424   0.68796  -0.00521  -2.37440  -0.39877
  92        6ZZ         0.00611   0.68158   0.00431  -2.37879  -0.39626
  93        6XY        -0.01145  -0.01027   0.06487   0.00657  -0.04700
  94        6XZ        -0.04418   0.00847  -0.00974   0.00379   0.00589
  95        6YZ        -0.00393  -0.00043  -0.00124  -0.00130   0.00341
          Condensed to atoms (all electrons):
              1          2          3          4          5          6
     1  C    5.058349   0.406319   0.427742   0.096201   0.229332  -0.005668
     2  H    0.406319   0.523604  -0.043351  -0.025139  -0.035546   0.000427
     3  H    0.427742  -0.043351   0.566287  -0.084944  -0.017617  -0.000643
     4  N    0.096201  -0.025139  -0.084944   7.524061  -0.093948  -0.054008
     5  N    0.229332  -0.035546  -0.017617  -0.093948   7.083755   0.258201
     6  H   -0.005668   0.000427  -0.000643  -0.054008   0.258201   0.487522
     7  Cl  -0.036220   0.004488  -0.001000  -0.132933  -0.017156   0.018619
              7
     1  C   -0.036220
     2  H    0.004488
     3  H   -0.001000
     4  N   -0.132933
     5  N   -0.017156
     6  H    0.018619
     7  Cl  16.970112
 Mulliken atomic charges:
              1
     1  C   -0.176054
     2  H    0.169198
     3  H    0.153526
     4  N   -0.229289
     5  N   -0.407021
     6  H    0.295550
     7  Cl   0.194091
 Sum of Mulliken atomic charges =   0.00000
 Mulliken charges with hydrogens summed into heavy atoms:
              1
     1  C    0.146669
     4  N   -0.229289
     5  N   -0.111471
     7  Cl   0.194091
 Sum of Mulliken charges with hydrogens summed into heavy atoms =   0.00000
 Electronic spatial extent (au):  <R**2>=            366.2873
 Charge=              0.0000 electrons
 Dipole moment (field-independent basis, Debye):
    X=              0.9039    Y=             -1.2036    Z=              1.5954  Tot=              2.1934
 Quadrupole moment (field-independent basis, Debye-Ang):
   XX=            -28.1577   YY=            -30.3763   ZZ=            -31.0955
   XY=             -2.3836   XZ=              2.5248   YZ=              2.3232
 Traceless Quadrupole moment (field-independent basis, Debye-Ang):
   XX=              1.7188   YY=             -0.4998   ZZ=             -1.2190
   XY=             -2.3836   XZ=              2.5248   YZ=              2.3232
 Octapole moment (field-independent basis, Debye-Ang**2):
  XXX=             -8.2850  YYY=             -0.7818  ZZZ=              1.8503  XYY=              0.0787
  XXY=             -3.7865  XXZ=              4.1684  XZZ=              0.5955  YZZ=             -0.8018
  YYZ=              2.9481  XYZ=              3.7257
 Hexadecapole moment (field-independent basis, Debye-Ang**3):
 XXXX=           -329.8367 YYYY=            -88.7651 ZZZZ=            -44.4624 XXXY=             -6.5092
 XXXZ=              6.7102 YYYX=             -1.4947 YYYZ=              5.6010 ZZZX=              3.1553
 ZZZY=              3.0308 XXYY=            -72.0970 XXZZ=            -66.2761 YYZZ=            -21.3919
 XXYZ=              6.0931 YYXZ=              4.4108 ZZXY=             -1.9056
 N-N= 1.544052970625D+02 E-N=-1.749526541085D+03  KE= 6.067690766583D+02
 Orbital energies and kinetic energies (alpha):
                                 1                 2
   1         O              -102.718614        136.882276
   2         O               -14.821733         22.024081
   3         O               -14.819351         22.030727
   4         O               -10.640692         15.937494
   5         O                -9.860359         21.657584
   6         O                -7.586534         20.586943
   7         O                -7.576902         20.624080
   8         O                -7.576072         20.626980
   9         O                -1.173919          1.910019
  10         O                -0.992815          2.670894
  11         O                -0.806030          1.970769
  12         O                -0.729276          1.925468
  13         O                -0.620436          1.655126
  14         O                -0.580721          1.490330
  15         O                -0.513312          1.626537
  16         O                -0.448875          1.708593
  17         O                -0.439395          1.895977
  18         O                -0.400747          2.112627
  19         O                -0.372842          1.988483
  20         O                -0.265146          2.059549
  21         V                -0.007832          2.012088
  22         V                 0.020044          0.408654
  23         V                 0.031075          0.442268
  24         V                 0.040798          0.255598
  25         V                 0.051421          0.256066
  26         V                 0.079913          0.425033
  27         V                 0.099703          0.581295
  28         V                 0.100981          0.429174
  29         V                 0.115696          0.511149
  30         V                 0.120574          0.669001
  31         V                 0.137140          0.802549
  32         V                 0.152596          0.714703
  33         V                 0.181791          0.844754
  34         V                 0.202889          0.604163
  35         V                 0.207460          1.010388
  36         V                 0.234351          0.753190
  37         V                 0.243771          0.830396
  38         V                 0.272904          1.226236
  39         V                 0.275701          0.957373
  40         V                 0.286668          1.065378
  41         V                 0.327929          1.507825
  42         V                 0.345422          1.531415
  43         V                 0.395841          1.012741
  44         V                 0.584159          2.360070
  45         V                 0.640924          2.738755
  46         V                 0.644161          2.770530
  47         V                 0.647702          2.735861
  48         V                 0.726489          2.113250
  49         V                 0.750365          2.291335
  50         V                 0.773245          2.671407
  51         V                 0.833187          2.919462
  52         V                 0.846467          2.604083
  53         V                 0.878404          2.399087
  54         V                 0.902218          2.617029
  55         V                 0.921577          2.578416
  56         V                 0.932935          2.586968
  57         V                 0.975558          2.589983
  58         V                 0.996258          2.782380
  59         V                 1.050163          2.509042
  60         V                 1.074289          2.382825
  61         V                 1.112370          2.744770
  62         V                 1.127781          2.616203
  63         V                 1.185384          3.052519
  64         V                 1.198565          3.048066
  65         V                 1.372010          2.423340
  66         V                 1.399195          2.453674
  67         V                 1.424839          2.555622
  68         V                 1.534492          2.674922
  69         V                 1.655760          3.100355
  70         V                 1.716287          2.847562
  71         V                 1.744821          2.918741
  72         V                 1.843279          2.998276
  73         V                 1.940184          3.317485
  74         V                 2.004592          3.118599
  75         V                 2.058635          3.254258
  76         V                 2.144736          3.212855
  77         V                 2.171359          3.811046
  78         V                 2.265754          3.464988
  79         V                 2.324502          3.665190
  80         V                 2.432950          3.527745
  81         V                 2.445969          3.380303
  82         V                 2.629225          4.200329
  83         V                 2.663986          3.808319
  84         V                 2.701894          3.817439
  85         V                 2.810097          4.228849
  86         V                 2.842937          4.056555
  87         V                 2.858717          4.320175
  88         V                 2.930149          4.642780
  89         V                 3.277757          5.354136
  90         V                 3.373357          5.275701
  91         V                 3.446404          5.150306
  92         V                 3.993753         10.649096
  93         V                 4.109712          9.820876
  94         V                 4.470193         14.268040
  95         V                 4.515770         10.322655
 Total kinetic energy from orbitals= 6.067690766583D+02

 Test job not archived.
 1\1\GINC-NODE116\SP\RM062X\6-31+G(d,p)\C1H3Cl1N2\VSC40473\06-Nov-2012\
 0\\#m062x/6-31+g** gfinput iop(6/7=3)\\Title Card Required\\0,1\C,0,-0
 .559743,0.3464,0.004243\H,0,-1.097146,-0.032882,-0.86812\H,0,-0.911621
 ,-0.03178,0.971871\N,0,0.089499,1.554266,-0.061199\N,0,0.968741,0.4415
 62,-0.179539\H,0,1.366094,0.261859,0.760201\Cl,0,0.154405,3.223148,-0.
 02232\\Version=EM64L-G09RevA.02\State=1-A\HF=-609.3448678\RMSD=4.427e-
 09\Dipole=-0.4765238,-0.3461759,0.6307013\Quadrupole=-0.2951215,1.2090
 34,-0.9139125,1.7937827,1.6884001,-1.919226\PG=C01 [X(C1H3Cl1N2)]\\@


 THERE IS NO SUBJECT, HOWEVER COMPLEX,
 WHICH, IF STUDIED WITH PATIENCE AND INTELLIGIENCE
 WILL NOT BECOME
 MORE COMPLEX
                        QUOTED BY D. GORDON ROHMAN
 Job cpu time:  0 days  0 hours  0 minutes 43.0 seconds.
 File lengths (MBytes):  RWF=     10 Int=      0 D2E=      0 Chk=      1 Scr=      1
 Normal termination of Gaussian 09 at Tue Nov  6 10:47:03 2012.
