 Entering Gaussian System, Link 0=g09
 Initial command:
 /apps/gent/gengar/harpertown/software/Gaussian/g09_A.02-ictce-3.2.2.u2-amd64-gpfs/g09/l1.exe /tmp/3806899.master.gengar.gent.vsc/Gau-7985.inp -scrdir=/tmp/3806899.master.gengar.gent.vsc/
 Entering Link 1 = /apps/gent/gengar/harpertown/software/Gaussian/g09_A.02-ictce-3.2.2.u2-amd64-gpfs/g09/l1.exe PID=      7986.
  
 Copyright (c) 1988,1990,1992,1993,1995,1998,2003,2009, Gaussian, Inc.
                  All Rights Reserved.
  
 This is part of the Gaussian(R) 09 program.  It is based on
 the Gaussian(R) 03 system (copyright 2003, Gaussian, Inc.),
 the Gaussian(R) 98 system (copyright 1998, Gaussian, Inc.),
 the Gaussian(R) 94 system (copyright 1995, Gaussian, Inc.),
 the Gaussian 92(TM) system (copyright 1992, Gaussian, Inc.),
 the Gaussian 90(TM) system (copyright 1990, Gaussian, Inc.),
 the Gaussian 88(TM) system (copyright 1988, Gaussian, Inc.),
 the Gaussian 86(TM) system (copyright 1986, Carnegie Mellon
 University), and the Gaussian 82(TM) system (copyright 1983,
 Carnegie Mellon University). Gaussian is a federally registered
 trademark of Gaussian, Inc.
  
 This software contains proprietary and confidential information,
 including trade secrets, belonging to Gaussian, Inc.
  
 This software is provided under written license and may be
 used, copied, transmitted, or stored only in accord with that
 written license.
  
 The following legend is applicable only to US Government
 contracts under FAR:
  
                    RESTRICTED RIGHTS LEGEND
  
 Use, reproduction and disclosure by the US Government is
 subject to restrictions as set forth in subparagraphs (a)
 and (c) of the Commercial Computer Software - Restricted
 Rights clause in FAR 52.227-19.
  
 Gaussian, Inc.
 340 Quinnipiac St., Bldg. 40, Wallingford CT 06492
  
  
 ---------------------------------------------------------------
 Warning -- This program may not be used in any manner that
 competes with the business of Gaussian, Inc. or will provide
 assistance to any competitor of Gaussian, Inc.  The licensee
 of this program is prohibited from giving any competitor of
 Gaussian, Inc. access to this program.  By using this program,
 the user acknowledges that Gaussian, Inc. is engaged in the
 business of creating and licensing software in the field of
 computational chemistry and represents and warrants to the
 licensee that it is not a competitor of Gaussian, Inc. and that
 it will not use this program in any manner prohibited above.
 ---------------------------------------------------------------
  

 Cite this work as:
 Gaussian 09, Revision A.02,
 M. J. Frisch, G. W. Trucks, H. B. Schlegel, G. E. Scuseria, 
 M. A. Robb, J. R. Cheeseman, G. Scalmani, V. Barone, B. Mennucci, 
 G. A. Petersson, H. Nakatsuji, M. Caricato, X. Li, H. P. Hratchian, 
 A. F. Izmaylov, J. Bloino, G. Zheng, J. L. Sonnenberg, M. Hada, 
 M. Ehara, K. Toyota, R. Fukuda, J. Hasegawa, M. Ishida, T. Nakajima, 
 Y. Honda, O. Kitao, H. Nakai, T. Vreven, J. A. Montgomery, Jr., 
 J. E. Peralta, F. Ogliaro, M. Bearpark, J. J. Heyd, E. Brothers, 
 K. N. Kudin, V. N. Staroverov, R. Kobayashi, J. Normand, 
 K. Raghavachari, A. Rendell, J. C. Burant, S. S. Iyengar, J. Tomasi, 
 M. Cossi, N. Rega, J. M. Millam, M. Klene, J. E. Knox, J. B. Cross, 
 V. Bakken, C. Adamo, J. Jaramillo, R. Gomperts, R. E. Stratmann, 
 O. Yazyev, A. J. Austin, R. Cammi, C. Pomelli, J. W. Ochterski, 
 R. L. Martin, K. Morokuma, V. G. Zakrzewski, G. A. Voth, 
 P. Salvador, J. J. Dannenberg, S. Dapprich, A. D. Daniels, 
 O. Farkas, J. B. Foresman, J. V. Ortiz, J. Cioslowski, 
 and D. J. Fox, Gaussian, Inc., Wallingford CT, 2009.
 
 ******************************************
 Gaussian 09:  EM64L-G09RevA.02 11-Jun-2009
                 6-Nov-2012 
 ******************************************
 %nproc=8
 Will use up to    8 processors via shared memory.
 %mem=4GB
 ----------------------------------
 #m062x/6-31+g** gfinput iop(6/7=3)
 ----------------------------------
 1/38=1/1;
 2/12=2,17=6,18=5,40=1/2;
 3/5=1,6=6,7=111,11=2,16=1,24=10,25=1,30=1,74=-55/1,2,3;
 4//1;
 5/5=2,38=5/2;
 6/7=3,8=2,9=2,10=2,28=1/1;
 99/5=1,9=1/99;
 -------
 comment
 -------
 Symbolic Z-matrix:
 Charge =  0 Multiplicity = 1
 6                    0    -0.6667   -1.47493  -0.00162 
 1                    0    -1.2131   -1.32624  -0.92826 
 1                    0    -1.11147  -2.16301   0.71567 
 7                    0    -0.00367  -0.32954   0.60934 
 7                    0     0.76854  -1.33814  -0.11944 
 1                    0     1.27259  -1.84976   0.60796 
 17                   0    -0.15327   1.1709   -0.38725 
 
                          Input orientation:                          
 ---------------------------------------------------------------------
 Center     Atomic      Atomic             Coordinates (Angstroms)
 Number     Number       Type             X           Y           Z
 ---------------------------------------------------------------------
      1          6           0       -0.666695   -1.474928   -0.001616
      2          1           0       -1.213098   -1.326243   -0.928259
      3          1           0       -1.111468   -2.163012    0.715667
      4          7           0       -0.003671   -0.329544    0.609341
      5          7           0        0.768535   -1.338137   -0.119441
      6          1           0        1.272593   -1.849756    0.607962
      7         17           0       -0.153269    1.170904   -0.387249
 ---------------------------------------------------------------------
                    Distance matrix (angstroms):
                    1          2          3          4          5
     1  C    0.000000
     2  H    1.085970   0.000000
     3  H    1.088934   1.847432   0.000000
     4  N    1.457660   2.195526   2.144790   0.000000
     5  N    1.446541   2.140373   2.216356   1.464474   0.000000
     6  H    2.067104   2.968619   2.406964   1.984917   1.022225
     7  Cl   2.722636   2.766166   3.639995   1.807461   2.686397
                    6          7
     6  H    0.000000
     7  Cl   3.485386   0.000000
 Stoichiometry    CH3ClN2
 Framework group  C1[X(CH3ClN2)]
 Deg. of freedom    15
 Full point group                 C1      NOp   1
 Largest Abelian subgroup         C1      NOp   1
 Largest concise Abelian subgroup C1      NOp   1
                         Standard orientation:                         
 ---------------------------------------------------------------------
 Center     Atomic      Atomic             Coordinates (Angstroms)
 Number     Number       Type             X           Y           Z
 ---------------------------------------------------------------------
      1          6           0       -1.273872    0.708965   -0.092088
      2          1           0       -0.924832    1.332952   -0.909488
      3          1           0       -2.049897    1.134464    0.542351
      4          7           0       -0.303467   -0.107735    0.626305
      5          7           0       -1.211717   -0.713019   -0.350116
      6          1           0       -1.878139   -1.243898    0.214678
      7         17           0        1.358964    0.015763   -0.072255
 ---------------------------------------------------------------------
 Rotational constants (GHZ):     18.9998843      4.1193402      3.8256045
 Standard basis: 6-31+G(d,p) (6D, 7F)
 AO basis set in the form of general basis input (Overlap normalization):
      1 0
 S   6 1.00       0.000000000000
      0.3047524880D+04  0.1834737132D-02
      0.4573695180D+03  0.1403732281D-01
      0.1039486850D+03  0.6884262226D-01
      0.2921015530D+02  0.2321844432D+00
      0.9286662960D+01  0.4679413484D+00
      0.3163926960D+01  0.3623119853D+00
 SP   3 1.00       0.000000000000
      0.7868272350D+01 -0.1193324198D+00  0.6899906659D-01
      0.1881288540D+01 -0.1608541517D+00  0.3164239610D+00
      0.5442492580D+00  0.1143456438D+01  0.7443082909D+00
 SP   1 1.00       0.000000000000
      0.1687144782D+00  0.1000000000D+01  0.1000000000D+01
 SP   1 1.00       0.000000000000
      0.4380000000D-01  0.1000000000D+01  0.1000000000D+01
 D   1 1.00       0.000000000000
      0.8000000000D+00  0.1000000000D+01
 ****
      2 0
 S   3 1.00       0.000000000000
      0.1873113696D+02  0.3349460434D-01
      0.2825394365D+01  0.2347269535D+00
      0.6401216923D+00  0.8137573261D+00
 S   1 1.00       0.000000000000
      0.1612777588D+00  0.1000000000D+01
 P   1 1.00       0.000000000000
      0.1100000000D+01  0.1000000000D+01
 ****
      3 0
 S   3 1.00       0.000000000000
      0.1873113696D+02  0.3349460434D-01
      0.2825394365D+01  0.2347269535D+00
      0.6401216923D+00  0.8137573261D+00
 S   1 1.00       0.000000000000
      0.1612777588D+00  0.1000000000D+01
 P   1 1.00       0.000000000000
      0.1100000000D+01  0.1000000000D+01
 ****
      4 0
 S   6 1.00       0.000000000000
      0.4173511460D+04  0.1834772160D-02
      0.6274579110D+03  0.1399462700D-01
      0.1429020930D+03  0.6858655181D-01
      0.4023432930D+02  0.2322408730D+00
      0.1282021290D+02  0.4690699481D+00
      0.4390437010D+01  0.3604551991D+00
 SP   3 1.00       0.000000000000
      0.1162636186D+02 -0.1149611817D+00  0.6757974388D-01
      0.2716279807D+01 -0.1691174786D+00  0.3239072959D+00
      0.7722183966D+00  0.1145851947D+01  0.7408951398D+00
 SP   1 1.00       0.000000000000
      0.2120314975D+00  0.1000000000D+01  0.1000000000D+01
 SP   1 1.00       0.000000000000
      0.6390000000D-01  0.1000000000D+01  0.1000000000D+01
 D   1 1.00       0.000000000000
      0.8000000000D+00  0.1000000000D+01
 ****
      5 0
 S   6 1.00       0.000000000000
      0.4173511460D+04  0.1834772160D-02
      0.6274579110D+03  0.1399462700D-01
      0.1429020930D+03  0.6858655181D-01
      0.4023432930D+02  0.2322408730D+00
      0.1282021290D+02  0.4690699481D+00
      0.4390437010D+01  0.3604551991D+00
 SP   3 1.00       0.000000000000
      0.1162636186D+02 -0.1149611817D+00  0.6757974388D-01
      0.2716279807D+01 -0.1691174786D+00  0.3239072959D+00
      0.7722183966D+00  0.1145851947D+01  0.7408951398D+00
 SP   1 1.00       0.000000000000
      0.2120314975D+00  0.1000000000D+01  0.1000000000D+01
 SP   1 1.00       0.000000000000
      0.6390000000D-01  0.1000000000D+01  0.1000000000D+01
 D   1 1.00       0.000000000000
      0.8000000000D+00  0.1000000000D+01
 ****
      6 0
 S   3 1.00       0.000000000000
      0.1873113696D+02  0.3349460434D-01
      0.2825394365D+01  0.2347269535D+00
      0.6401216923D+00  0.8137573261D+00
 S   1 1.00       0.000000000000
      0.1612777588D+00  0.1000000000D+01
 P   1 1.00       0.000000000000
      0.1100000000D+01  0.1000000000D+01
 ****
      7 0
 S   6 1.00       0.000000000000
      0.2518010000D+05  0.1832959848D-02
      0.3780350000D+04  0.1403419883D-01
      0.8604740000D+03  0.6909739426D-01
      0.2421450000D+03  0.2374519803D+00
      0.7733490000D+02  0.4830339599D+00
      0.2624700000D+02  0.3398559718D+00
 SP   6 1.00       0.000000000000
      0.4917650000D+03 -0.2297391417D-02  0.3989400879D-02
      0.1169840000D+03 -0.3071371894D-01  0.3031770668D-01
      0.3741530000D+02 -0.1125280694D+00  0.1298800286D+00
      0.1378340000D+02  0.4501632776D-01  0.3279510723D+00
      0.5452150000D+01  0.5893533634D+00  0.4535271000D+00
      0.2225880000D+01  0.4652062868D+00  0.2521540556D+00
 SP   3 1.00       0.000000000000
      0.3186490000D+01 -0.2518280280D+00 -0.1429931472D-01
      0.1144270000D+01  0.6158925141D-01  0.3235723331D+00
      0.4203770000D+00  0.1060184328D+01  0.7435077653D+00
 SP   1 1.00       0.000000000000
      0.1426570000D+00  0.1000000000D+01  0.1000000000D+01
 SP   1 1.00       0.000000000000
      0.4830000000D-01  0.1000000000D+01  0.1000000000D+01
 D   1 1.00       0.000000000000
      0.7500000000D+00  0.1000000000D+01
 ****

 There are    95 symmetry adapted basis functions of A   symmetry.
 Integral buffers will be    131072 words long.
 Raffenetti 2 integral format.
 Two-electron integral symmetry is turned on.
    95 basis functions,   173 primitive gaussians,    95 cartesian basis functions
    20 alpha electrons       20 beta electrons
       nuclear repulsion energy       155.0945952317 Hartrees.
 NAtoms=    7 NActive=    7 NUniq=    7 SFac= 7.50D-01 NAtFMM=   80 NAOKFM=F Big=F
 One-electron integrals computed using PRISM.
 NBasis=    95 RedAO= T  NBF=    95
 NBsUse=    95 1.00D-06 NBFU=    95
 Harris functional with IExCor= 1009 diagonalized for initial guess.
 ExpMin= 4.38D-02 ExpMax= 2.52D+04 ExpMxC= 3.78D+03 IAcc=2 IRadAn=         0 AccDes= 0.00D+00
 HarFok:  IExCor= 1009 AccDes= 0.00D+00 IRadAn=         0 IDoV= 1
 ScaDFX=  1.000000  1.000000  1.000000  1.000000
 FoFCou: FMM=F IPFlag=           0 FMFlag=      100000 FMFlg1=           0
         NFxFlg=           0 DoJE=T BraDBF=F KetDBF=T FulRan=T
         Omega=  0.000000  0.000000  1.000000  0.000000  0.000000 ICntrl=     500 IOpCl=  0
         NMat0=    1 NMatS0=    1 NMatT0=    0 NMatD0=    1 NMtDS0=    0 NMtDT0=    0
         I1Cent=           4 NGrid=           0.
 Petite list used in FoFCou.
 Initial guess orbital symmetries:
       Occupied  (A) (A) (A) (A) (A) (A) (A) (A) (A) (A) (A) (A)
                 (A) (A) (A) (A) (A) (A) (A) (A)
       Virtual   (A) (A) (A) (A) (A) (A) (A) (A) (A) (A) (A) (A)
                 (A) (A) (A) (A) (A) (A) (A) (A) (A) (A) (A) (A)
                 (A) (A) (A) (A) (A) (A) (A) (A) (A) (A) (A) (A)
                 (A) (A) (A) (A) (A) (A) (A) (A) (A) (A) (A) (A)
                 (A) (A) (A) (A) (A) (A) (A) (A) (A) (A) (A) (A)
                 (A) (A) (A) (A) (A) (A) (A) (A) (A) (A) (A) (A)
                 (A) (A) (A)
 The electronic state of the initial guess is 1-A.
 Requested convergence on RMS density matrix=1.00D-08 within 128 cycles.
 Requested convergence on MAX density matrix=1.00D-06.
 Requested convergence on             energy=1.00D-06.
 No special actions if energy rises.
 Keep R1 ints in memory in canonical form, NReq=11420021.
 SCF Done:  E(RM062X) =  -609.410256385     A.U. after   13 cycles
             Convg  =    0.5648D-08             -V/T =  2.0042

 **********************************************************************

            Population analysis using the SCF density.

 **********************************************************************

 Orbital symmetries:
       Occupied  (A) (A) (A) (A) (A) (A) (A) (A) (A) (A) (A) (A)
                 (A) (A) (A) (A) (A) (A) (A) (A)
       Virtual   (A) (A) (A) (A) (A) (A) (A) (A) (A) (A) (A) (A)
                 (A) (A) (A) (A) (A) (A) (A) (A) (A) (A) (A) (A)
                 (A) (A) (A) (A) (A) (A) (A) (A) (A) (A) (A) (A)
                 (A) (A) (A) (A) (A) (A) (A) (A) (A) (A) (A) (A)
                 (A) (A) (A) (A) (A) (A) (A) (A) (A) (A) (A) (A)
                 (A) (A) (A) (A) (A) (A) (A) (A) (A) (A) (A) (A)
                 (A) (A) (A)
 The electronic state is 1-A.
 Alpha  occ. eigenvalues -- -102.68050 -14.87356 -14.82421 -10.63722  -9.82543
 Alpha  occ. eigenvalues --   -7.55054  -7.54191  -7.54187  -1.19082  -0.94881
 Alpha  occ. eigenvalues --   -0.80726  -0.75145  -0.62371  -0.57842  -0.49220
 Alpha  occ. eigenvalues --   -0.47147  -0.42525  -0.37187  -0.36664  -0.34476
 Alpha virt. eigenvalues --   -0.01314   0.01522   0.02993   0.03565   0.05242
 Alpha virt. eigenvalues --    0.09224   0.09975   0.10717   0.11466   0.13037
 Alpha virt. eigenvalues --    0.14417   0.15239   0.17194   0.18056   0.19259
 Alpha virt. eigenvalues --    0.21364   0.23537   0.26522   0.26747   0.28448
 Alpha virt. eigenvalues --    0.30985   0.32690   0.36796   0.59193   0.61931
 Alpha virt. eigenvalues --    0.64657   0.66140   0.69277   0.73526   0.75974
 Alpha virt. eigenvalues --    0.79832   0.86515   0.88167   0.91583   0.93764
 Alpha virt. eigenvalues --    0.95292   0.98620   0.99806   1.03743   1.04300
 Alpha virt. eigenvalues --    1.06389   1.10313   1.14708   1.18438   1.21783
 Alpha virt. eigenvalues --    1.41137   1.42963   1.44236   1.61589   1.70065
 Alpha virt. eigenvalues --    1.76718   1.86957   1.95825   1.99352   2.06015
 Alpha virt. eigenvalues --    2.10796   2.17173   2.25566   2.32162   2.39465
 Alpha virt. eigenvalues --    2.40903   2.56293   2.65490   2.69820   2.76753
 Alpha virt. eigenvalues --    2.83917   2.84263   2.90085   3.26383   3.40740
 Alpha virt. eigenvalues --    3.46700   3.98442   4.10505   4.40400   4.45490
     Molecular Orbital Coefficients:
                           1         2         3         4         5
                           O         O         O         O         O
     Eigenvalues --  -102.68050 -14.87356 -14.82421 -10.63722  -9.82543
   1 1   C  1S         -0.00001  -0.00001   0.00000   0.99417   0.00001
   2        2S          0.00000   0.00018   0.00024   0.04151  -0.00007
   3        2PX        -0.00003   0.00021   0.00002   0.00053   0.00002
   4        2PY         0.00002  -0.00015  -0.00025  -0.00125   0.00003
   5        2PZ        -0.00001   0.00015  -0.00006   0.00035   0.00007
   6        3S         -0.00001   0.00226   0.00183  -0.01644  -0.00073
   7        3PX        -0.00002   0.00102  -0.00035  -0.00117  -0.00002
   8        3PY        -0.00002  -0.00031  -0.00085   0.00237  -0.00038
   9        3PZ        -0.00004   0.00001   0.00021  -0.00073  -0.00045
  10        4S          0.00021   0.00117   0.00091  -0.00529  -0.00405
  11        4PX         0.00004   0.00042  -0.00002  -0.00035  -0.00197
  12        4PY        -0.00005  -0.00012  -0.00035   0.00103   0.00016
  13        4PZ         0.00000   0.00015  -0.00012  -0.00047   0.00024
  14        5XX        -0.00004  -0.00001  -0.00004  -0.00667   0.00014
  15        5YY        -0.00002  -0.00013  -0.00016  -0.00637   0.00004
  16        5ZZ        -0.00002  -0.00005  -0.00003  -0.00666  -0.00002
  17        5XY         0.00001   0.00003   0.00005  -0.00022   0.00000
  18        5XZ         0.00000  -0.00010  -0.00008   0.00000  -0.00004
  19        5YZ         0.00000   0.00000  -0.00005  -0.00007  -0.00003
  20 2   H  1S          0.00000  -0.00016  -0.00006   0.00010  -0.00013
  21        2S         -0.00003  -0.00054  -0.00005   0.00150  -0.00003
  22        3PX        -0.00001  -0.00004   0.00001   0.00011  -0.00002
  23        3PY         0.00001   0.00008   0.00009  -0.00002   0.00002
  24        3PZ         0.00000  -0.00006  -0.00002  -0.00009   0.00003
  25 3   H  1S          0.00001  -0.00007  -0.00014   0.00005   0.00005
  26        2S          0.00002  -0.00001  -0.00044   0.00173   0.00017
  27        3PX         0.00001  -0.00008  -0.00002  -0.00008   0.00000
  28        3PY         0.00000   0.00005   0.00011  -0.00005   0.00003
  29        3PZ        -0.00001  -0.00001   0.00001   0.00015   0.00001
  30 4   N  1S         -0.00001   0.99410  -0.00280  -0.00009   0.00005
  31        2S          0.00000   0.02944   0.00017   0.00020   0.00054
  32        2PX         0.00006  -0.00015  -0.00018   0.00001   0.00003
  33        2PY         0.00000   0.00030  -0.00010  -0.00007   0.00000
  34        2PZ        -0.00001  -0.00242  -0.00017   0.00008  -0.00001
  35        3S          0.00015  -0.00082   0.00041   0.00144  -0.00137
  36        3PX        -0.00004   0.00052  -0.00008  -0.00025  -0.00012
  37        3PY         0.00001  -0.00046  -0.00056   0.00098   0.00011
  38        3PZ        -0.00011   0.00269  -0.00022  -0.00062   0.00021
  39        4S          0.00031  -0.00446   0.00215   0.00620   0.01459
  40        4PX         0.00000   0.00011  -0.00040  -0.00145  -0.00032
  41        4PY        -0.00004  -0.00002  -0.00003   0.00124  -0.00043
  42        4PZ        -0.00007   0.00026  -0.00076  -0.00183  -0.00479
  43        5XX        -0.00002  -0.00584  -0.00001  -0.00020  -0.00029
  44        5YY        -0.00002  -0.00584   0.00001  -0.00010   0.00026
  45        5ZZ        -0.00001  -0.00586  -0.00004  -0.00007   0.00010
  46        5XY        -0.00001   0.00001   0.00006   0.00023  -0.00007
  47        5XZ         0.00003  -0.00003  -0.00010  -0.00031   0.00028
  48        5YZ         0.00000   0.00002  -0.00001   0.00016   0.00001
  49 5   N  1S          0.00000   0.00275   0.99405  -0.00009   0.00000
  50        2S          0.00000   0.00027   0.02958   0.00018  -0.00008
  51        2PX        -0.00002   0.00015  -0.00033   0.00006  -0.00005
  52        2PY        -0.00001   0.00012   0.00098  -0.00011   0.00000
  53        2PZ        -0.00001   0.00019   0.00192  -0.00005   0.00003
  54        3S         -0.00005   0.00091  -0.00062   0.00172  -0.00029
  55        3PX        -0.00003   0.00045   0.00009  -0.00077   0.00050
  56        3PY         0.00000  -0.00026  -0.00141   0.00083   0.00007
  57        3PZ        -0.00003   0.00049  -0.00185   0.00031  -0.00008
  58        4S         -0.00040   0.00200  -0.00373   0.00388  -0.00963
  59        4PX        -0.00003   0.00019  -0.00020  -0.00057  -0.00225
  60        4PY        -0.00007   0.00035  -0.00026   0.00137  -0.00081
  61        4PZ        -0.00007   0.00056  -0.00011   0.00070  -0.00180
  62        5XX        -0.00004   0.00006  -0.00577   0.00008   0.00012
  63        5YY        -0.00002  -0.00012  -0.00583  -0.00051  -0.00007
  64        5ZZ        -0.00002  -0.00005  -0.00583   0.00009  -0.00007
  65        5XY        -0.00001   0.00003   0.00012   0.00002   0.00004
  66        5XZ         0.00000  -0.00009  -0.00010  -0.00007   0.00003
  67        5YZ         0.00001  -0.00009  -0.00010  -0.00018   0.00005
  68 6   H  1S          0.00001  -0.00014   0.00019  -0.00006  -0.00003
  69        2S          0.00005  -0.00043   0.00075  -0.00122   0.00085
  70        3PX         0.00001  -0.00010  -0.00019   0.00000   0.00001
  71        3PY         0.00001  -0.00005  -0.00010   0.00001   0.00001
  72        3PZ        -0.00001   0.00003   0.00024   0.00003  -0.00003
  73 7   Cl 1S          0.99592   0.00000   0.00000   0.00000  -0.28542
  74        2S          0.01544  -0.00004   0.00001   0.00000   1.02453
  75        2PX        -0.00004   0.00007  -0.00001  -0.00002  -0.00490
  76        2PY         0.00000   0.00000   0.00000   0.00001  -0.00013
  77        2PZ         0.00001  -0.00002   0.00000   0.00000   0.00187
  78        3S         -0.02117  -0.00029   0.00007   0.00009   0.06583
  79        3PX         0.00002  -0.00030   0.00005   0.00012  -0.00114
  80        3PY         0.00000  -0.00002   0.00001  -0.00005   0.00000
  81        3PZ         0.00000   0.00009   0.00000   0.00000   0.00031
  82        4S          0.00185   0.00130  -0.00034  -0.00105  -0.01820
  83        4PX         0.00005  -0.00073   0.00010   0.00025   0.00200
  84        4PY         0.00000  -0.00001   0.00007   0.00008  -0.00009
  85        4PZ        -0.00001  -0.00001  -0.00001  -0.00011  -0.00029
  86        5S         -0.00040   0.00009  -0.00002   0.00029   0.00521
  87        5PX         0.00003   0.00017  -0.00001   0.00010  -0.00142
  88        5PY         0.00000  -0.00010  -0.00011  -0.00031   0.00036
  89        5PZ         0.00000   0.00025   0.00006   0.00035  -0.00003
  90        6XX         0.00755   0.00036  -0.00004   0.00000  -0.01365
  91        6YY         0.00756  -0.00004  -0.00001  -0.00002  -0.01444
  92        6ZZ         0.00757  -0.00008   0.00001  -0.00003  -0.01429
  93        6XY         0.00000   0.00002  -0.00003  -0.00003   0.00008
  94        6XZ         0.00000  -0.00006   0.00000   0.00004  -0.00037
  95        6YZ         0.00000   0.00001   0.00002  -0.00004  -0.00003
                           6         7         8         9        10
                           O         O         O         O         O
     Eigenvalues --    -7.55054  -7.54191  -7.54187  -1.19082  -0.94881
   1 1   C  1S          0.00007  -0.00002   0.00003  -0.09295   0.03140
   2        2S          0.00049  -0.00010   0.00024   0.17383  -0.06279
   3        2PX        -0.00010  -0.00001  -0.00004   0.05297   0.03312
   4        2PY        -0.00004  -0.00002   0.00006  -0.11331   0.05502
   5        2PZ        -0.00002   0.00006  -0.00011   0.02422   0.01084
   6        3S         -0.00214   0.00034  -0.00116   0.05645  -0.04655
   7        3PX        -0.00154   0.00051  -0.00100  -0.00567   0.00020
   8        3PY         0.00058  -0.00014   0.00011   0.00726   0.00016
   9        3PZ         0.00027  -0.00050  -0.00002   0.00142  -0.00509
  10        4S         -0.00739  -0.00136   0.00401   0.03816  -0.03474
  11        4PX        -0.00163  -0.00108   0.00084   0.00690  -0.00342
  12        4PY         0.00210  -0.00069  -0.00096  -0.01387   0.01066
  13        4PZ        -0.00070  -0.00099  -0.00037   0.00253  -0.00333
  14        5XX        -0.00025   0.00004  -0.00016  -0.00507   0.00749
  15        5YY         0.00006  -0.00006   0.00006   0.01353  -0.00970
  16        5ZZ         0.00016  -0.00005   0.00006  -0.00951   0.00325
  17        5XY         0.00005   0.00000   0.00007  -0.01176  -0.00164
  18        5XZ         0.00003   0.00002   0.00001   0.00486   0.00239
  19        5YZ         0.00004  -0.00002   0.00002  -0.00501  -0.00089
  20 2   H  1S          0.00010  -0.00013   0.00018   0.02766  -0.00701
  21        2S          0.00101  -0.00002  -0.00009   0.00862   0.00075
  22        3PX         0.00001   0.00001  -0.00004  -0.00058   0.00083
  23        3PY        -0.00005  -0.00001   0.00003  -0.00293   0.00095
  24        3PZ         0.00000   0.00002  -0.00003   0.00288  -0.00006
  25 3   H  1S          0.00001   0.00003  -0.00003   0.02692  -0.01802
  26        2S         -0.00060   0.00045   0.00014   0.00330  -0.00294
  27        3PX         0.00005   0.00000   0.00004   0.00287  -0.00042
  28        3PY        -0.00001  -0.00002  -0.00002  -0.00227   0.00109
  29        3PZ         0.00001  -0.00002   0.00000  -0.00184   0.00135
  30 4   N  1S         -0.00015  -0.00001  -0.00009  -0.13299  -0.06037
  31        2S         -0.00134  -0.00006  -0.00035   0.27312   0.12246
  32        2PX        -0.00013  -0.00002   0.00002  -0.07876   0.14473
  33        2PY        -0.00002   0.00007  -0.00003   0.00243   0.02855
  34        2PZ         0.00015   0.00003   0.00011  -0.11272  -0.01320
  35        3S          0.00361   0.00036   0.00237   0.27233   0.19726
  36        3PX         0.00122  -0.00010  -0.00081  -0.01834   0.05490
  37        3PY         0.00023  -0.00030   0.00001   0.00947   0.01060
  38        3PZ        -0.00247  -0.00031  -0.00100  -0.05038  -0.03966
  39        4S          0.00006   0.00134   0.00273  -0.09254   0.02477
  40        4PX        -0.00633  -0.00083   0.00205   0.00460  -0.03434
  41        4PY         0.00019   0.00138   0.00005  -0.00125  -0.00046
  42        4PZ         0.00143   0.00004  -0.00057   0.02391  -0.00305
  43        5XX         0.00087   0.00000  -0.00029   0.00511   0.00454
  44        5YY        -0.00067  -0.00005  -0.00017  -0.01436  -0.00640
  45        5ZZ        -0.00021   0.00004   0.00002   0.00118  -0.00406
  46        5XY         0.00016  -0.00010   0.00003   0.00240  -0.00002
  47        5XZ        -0.00065   0.00000   0.00005   0.01318  -0.01757
  48        5YZ        -0.00006   0.00015  -0.00002   0.00137  -0.00390
  49 5   N  1S          0.00007   0.00002   0.00003  -0.12747   0.08137
  50        2S          0.00039   0.00012   0.00022   0.26182  -0.17081
  51        2PX         0.00001   0.00006   0.00000   0.03563   0.05255
  52        2PY         0.00001  -0.00003  -0.00002   0.09049  -0.02486
  53        2PZ         0.00001   0.00000  -0.00003   0.09226  -0.03913
  54        3S         -0.00163  -0.00061  -0.00123   0.23120  -0.22163
  55        3PX        -0.00115  -0.00080  -0.00076   0.00297   0.00962
  56        3PY        -0.00018  -0.00018  -0.00022   0.03578  -0.02368
  57        3PZ        -0.00056  -0.00018  -0.00063   0.02834  -0.03114
  58        4S          0.00009  -0.00136  -0.00242  -0.00989  -0.01711
  59        4PX        -0.00006   0.00050   0.00019   0.00111   0.00038
  60        4PY        -0.00029  -0.00118  -0.00062  -0.01000   0.00241
  61        4PZ        -0.00118   0.00028  -0.00014   0.00268  -0.00873
  62        5XX        -0.00021  -0.00009  -0.00013  -0.00807   0.00737
  63        5YY         0.00020   0.00007   0.00008   0.00102   0.00001
  64        5ZZ         0.00025   0.00007   0.00009  -0.00220   0.00372
  65        5XY        -0.00012  -0.00004  -0.00011   0.00831  -0.00005
  66        5XZ        -0.00004  -0.00006  -0.00002   0.00881   0.00359
  67        5YZ        -0.00005   0.00001  -0.00004   0.01311  -0.00249
  68 6   H  1S          0.00007  -0.00003   0.00004   0.06369  -0.07135
  69        2S         -0.00003  -0.00011   0.00052  -0.00205  -0.00187
  70        3PX         0.00010   0.00002   0.00004   0.00678  -0.00390
  71        3PY         0.00003   0.00000   0.00004   0.00613  -0.00441
  72        3PZ         0.00002   0.00003   0.00001  -0.00441   0.00454
  73 7   Cl 1S         -0.00163   0.00006  -0.00006   0.01229   0.06830
  74        2S          0.00598  -0.00021   0.00019  -0.05551  -0.30846
  75        2PX         0.91743   0.01717   0.37754   0.02096   0.03370
  76        2PY         0.06598   0.96944  -0.20470   0.00121   0.00076
  77        2PZ        -0.37183   0.21441   0.89534  -0.00530  -0.01438
  78        3S         -0.00104   0.00010  -0.00006   0.10304   0.61304
  79        3PX         0.02380   0.00041   0.00869  -0.04558  -0.07855
  80        3PY         0.00170   0.02201  -0.00464  -0.00286  -0.00188
  81        3PZ        -0.00952   0.00486   0.02029   0.01138   0.03383
  82        4S          0.00008  -0.00041  -0.00013   0.02610   0.22468
  83        4PX        -0.00839  -0.00003  -0.00286   0.00440   0.00471
  84        4PY        -0.00059  -0.00781   0.00166   0.00138   0.00332
  85        4PZ         0.00337  -0.00170  -0.00716  -0.00159  -0.00176
  86        5S          0.00856   0.00145  -0.00437   0.02124   0.02786
  87        5PX        -0.00029  -0.00052   0.00283  -0.01413  -0.01360
  88        5PY         0.00021   0.00289  -0.00067  -0.00137  -0.00160
  89        5PZ        -0.00007   0.00080   0.00210   0.00109   0.00805
  90        6XX        -0.00075  -0.00003  -0.00032   0.01238   0.02017
  91        6YY         0.00047  -0.00001  -0.00004  -0.00496  -0.01338
  92        6ZZ         0.00033   0.00006   0.00020  -0.00335  -0.00773
  93        6XY        -0.00010  -0.00034   0.00007   0.00109   0.00154
  94        6XZ         0.00053  -0.00007  -0.00027  -0.00590  -0.01657
  95        6YZ         0.00002   0.00012  -0.00003  -0.00053  -0.00116
                          11        12        13        14        15
                           O         O         O         O         O
     Eigenvalues --    -0.80726  -0.75145  -0.62371  -0.57842  -0.49220
   1 1   C  1S          0.09103   0.14105  -0.01453  -0.00889   0.01011
   2        2S         -0.18780  -0.28363   0.02130   0.00581  -0.02560
   3        2PX        -0.08185   0.09008  -0.16888   0.02099   0.23099
   4        2PY        -0.05038  -0.07699   0.13836   0.25428  -0.11692
   5        2PZ        -0.06466   0.07582   0.24331  -0.19871   0.00963
   6        3S         -0.18045  -0.32893   0.05032   0.03436   0.00497
   7        3PX        -0.00886   0.00816  -0.06929   0.02120   0.11987
   8        3PY        -0.00363  -0.00404   0.03515   0.08443  -0.06583
   9        3PZ        -0.00710   0.01228   0.11359  -0.08915  -0.00995
  10        4S         -0.01086  -0.02031   0.02968  -0.03358   0.06062
  11        4PX        -0.00239   0.00460   0.00473  -0.00835   0.02689
  12        4PY        -0.00365  -0.00070  -0.00471   0.01118  -0.02301
  13        4PZ        -0.00769   0.00174   0.01889  -0.01615   0.00522
  14        5XX        -0.00366   0.00742   0.00306   0.00580   0.00547
  15        5YY         0.01258   0.00268  -0.01278  -0.01322  -0.00151
  16        5ZZ        -0.00154   0.00294   0.00819   0.00509   0.00094
  17        5XY         0.01156  -0.00600   0.00764   0.00977   0.00630
  18        5XZ        -0.00340   0.01183   0.00210  -0.00610   0.01749
  19        5YZ         0.00873  -0.00470  -0.00939   0.00502  -0.00463
  20 2   H  1S         -0.06939  -0.14380  -0.06301   0.17443  -0.01199
  21        2S         -0.02058  -0.05317  -0.02041   0.09915  -0.02301
  22        3PX         0.00097   0.00493   0.00028  -0.00356   0.00329
  23        3PY         0.00167   0.00434   0.00333  -0.00385  -0.00010
  24        3PZ        -0.00508  -0.00692  -0.00106   0.00678  -0.00057
  25 3   H  1S         -0.06737  -0.13602   0.17510  -0.00687  -0.15372
  26        2S         -0.02158  -0.05411   0.08162   0.00299  -0.11645
  27        3PX        -0.00437  -0.00525   0.00662   0.00039  -0.00233
  28        3PY         0.00090   0.00251  -0.00300   0.00237   0.00194
  29        3PZ         0.00208   0.00688  -0.00469  -0.00173   0.00496
  30 4   N  1S          0.08230  -0.11147  -0.04884  -0.02847  -0.00269
  31        2S         -0.18106   0.24512   0.11013   0.04637   0.00924
  32        2PX         0.04593   0.00936  -0.00261   0.29302   0.01248
  33        2PY        -0.13732  -0.08837   0.02779  -0.04748   0.38947
  34        2PZ         0.01289  -0.00931   0.21359   0.03370   0.05919
  35        3S         -0.25942   0.37035   0.15440   0.15198  -0.00975
  36        3PX         0.02805  -0.00350  -0.00510   0.15431   0.01549
  37        3PY        -0.05210  -0.03162   0.01449  -0.01851   0.23013
  38        3PZ         0.02867  -0.02863   0.11216  -0.01591   0.03901
  39        4S         -0.01081  -0.02058  -0.11219   0.08252   0.06182
  40        4PX        -0.01046  -0.00686   0.01432  -0.04660  -0.00212
  41        4PY         0.01148   0.01014  -0.00411  -0.00079  -0.00699
  42        4PZ         0.00137   0.01003   0.01693  -0.01101  -0.03802
  43        5XX         0.00445  -0.00111   0.01505  -0.00594   0.00240
  44        5YY         0.00342  -0.00822   0.00928   0.00372   0.00697
  45        5ZZ         0.00532  -0.00619  -0.03158  -0.00159  -0.00929
  46        5XY         0.01115   0.00689  -0.00141   0.00551  -0.00136
  47        5XZ        -0.00275  -0.00089  -0.00754  -0.02344  -0.00258
  48        5YZ         0.01383   0.01027   0.00008   0.00178  -0.03088
  49 5   N  1S         -0.12861   0.01052   0.03015  -0.03074  -0.00286
  50        2S          0.27387  -0.02132  -0.07817   0.06184   0.00865
  51        2PX        -0.11163   0.11816  -0.18822  -0.03334  -0.27599
  52        2PY        -0.12320  -0.08354  -0.20470  -0.21939  -0.01489
  53        2PZ         0.03944   0.08923   0.15148  -0.10641  -0.06214
  54        3S          0.39501  -0.03752  -0.07840   0.10580  -0.01357
  55        3PX        -0.03430   0.04209  -0.09002  -0.01620  -0.16713
  56        3PY        -0.01789  -0.03413  -0.08464  -0.10165  -0.02470
  57        3PZ         0.04380   0.02765   0.08913  -0.05162  -0.02745
  58        4S          0.02259   0.02786   0.08494  -0.05601  -0.09830
  59        4PX        -0.00422   0.00181   0.01774  -0.01009  -0.02778
  60        4PY        -0.00191   0.00809   0.02219  -0.01626  -0.00672
  61        4PZ         0.00707   0.00234   0.01971  -0.01466  -0.00604
  62        5XX        -0.00187   0.00371  -0.00056   0.01018  -0.00097
  63        5YY        -0.01305  -0.01424  -0.01540  -0.00669   0.00693
  64        5ZZ        -0.00594   0.01352   0.01774  -0.00910  -0.00809
  65        5XY         0.00053   0.00866  -0.00787   0.00237   0.00111
  66        5XZ        -0.00813   0.01266  -0.01374  -0.00200  -0.02244
  67        5YZ        -0.01054   0.00216  -0.00317  -0.02423  -0.00332
  68 6   H  1S          0.17464  -0.00209   0.14846   0.08534   0.11027
  69        2S          0.03209  -0.00070   0.06683   0.05034   0.06843
  70        3PX         0.00894   0.00286   0.00390   0.00335  -0.00199
  71        3PY         0.00643  -0.00172   0.00279  -0.00227   0.00385
  72        3PZ        -0.00959   0.00193  -0.00320  -0.00545  -0.00557
  73 7   Cl 1S          0.03318  -0.02840   0.00109  -0.02046  -0.00104
  74        2S         -0.15047   0.12918  -0.00514   0.09314   0.00477
  75        2PX        -0.02314   0.03932  -0.01195   0.10600   0.01114
  76        2PY         0.00585   0.01105  -0.00148   0.00942  -0.10065
  77        2PZ         0.00849  -0.01989  -0.02758  -0.04569  -0.02209
  78        3S          0.30730  -0.26682   0.00962  -0.20237  -0.01068
  79        3PX         0.05352  -0.09419   0.02965  -0.26464  -0.02786
  80        3PY        -0.01408  -0.02682   0.00357  -0.02350   0.25797
  81        3PZ        -0.01973   0.04764   0.06875   0.11448   0.05674
  82        4S          0.16250  -0.15602   0.01645  -0.15404  -0.01845
  83        4PX         0.00020  -0.00519   0.00629  -0.06431  -0.00675
  84        4PY        -0.00467  -0.00685   0.00210  -0.00660   0.10892
  85        4PZ        -0.00332   0.00921   0.02774   0.02448   0.02158
  86        5S          0.00956   0.01626   0.00134   0.03412  -0.02841
  87        5PX        -0.00024  -0.01132  -0.00026  -0.01855   0.00875
  88        5PY        -0.00207  -0.00355   0.00116  -0.00157   0.00213
  89        5PZ         0.00210   0.00272   0.00162   0.01054   0.00367
  90        6XX        -0.00579   0.01245  -0.00553   0.02726   0.00257
  91        6YY        -0.00008  -0.00215   0.00016  -0.00842  -0.00284
  92        6ZZ        -0.00161   0.00117   0.00529  -0.00114   0.00167
  93        6XY         0.00448   0.00539  -0.00073   0.00411  -0.02274
  94        6XZ         0.00304  -0.00945  -0.01037  -0.01929  -0.00537
  95        6YZ        -0.00100  -0.00128  -0.00010  -0.00226   0.00710
                          16        17        18        19        20
                           O         O         O         O         O
     Eigenvalues --    -0.47147  -0.42525  -0.37187  -0.36664  -0.34476
   1 1   C  1S         -0.00064  -0.00669   0.01152   0.00255  -0.01735
   2        2S          0.00348   0.01863  -0.02397  -0.00394   0.05261
   3        2PX         0.24529   0.02875  -0.04538  -0.14399   0.09580
   4        2PY         0.22036  -0.04876   0.07974  -0.05095   0.01712
   5        2PZ        -0.02811  -0.24765   0.07471  -0.14240   0.07416
   6        3S         -0.02394   0.03694  -0.04811  -0.05255   0.03210
   7        3PX         0.12493   0.00041  -0.01522  -0.07768   0.04517
   8        3PY         0.11330  -0.00745   0.05823  -0.02094   0.03408
   9        3PZ        -0.04405  -0.09061   0.01133  -0.06259   0.04098
  10        4S          0.04581   0.01664   0.02224  -0.10187  -0.03011
  11        4PX         0.02566   0.00825   0.00605  -0.02675  -0.00604
  12        4PY        -0.00305  -0.00022   0.00545   0.02756   0.01418
  13        4PZ        -0.00105  -0.00535   0.00503  -0.01228   0.00428
  14        5XX         0.00087  -0.01394   0.00187  -0.00507   0.00816
  15        5YY        -0.00926   0.00935  -0.00426   0.01194   0.00288
  16        5ZZ         0.00558   0.00609   0.00374  -0.00974  -0.01319
  17        5XY        -0.00323   0.01167  -0.00985   0.00758  -0.00781
  18        5XZ         0.00173   0.00271  -0.00377  -0.00984  -0.00403
  19        5YZ        -0.02281  -0.00905   0.01084  -0.00804  -0.00766
  20 2   H  1S          0.16112   0.13172  -0.04317   0.04277   0.00239
  21        2S          0.11490   0.12000  -0.06396   0.07020  -0.00174
  22        3PX         0.00079  -0.00296   0.00016  -0.00157   0.00054
  23        3PY        -0.00105  -0.00438   0.00197  -0.00108   0.00097
  24        3PZ         0.00600   0.00129  -0.00006  -0.00105   0.00220
  25 3   H  1S         -0.07443  -0.13411   0.08142  -0.00652   0.01518
  26        2S         -0.04403  -0.14645   0.10198  -0.01320   0.01326
  27        3PX         0.00142  -0.00446   0.00195  -0.00276   0.00118
  28        3PY         0.00390   0.00172  -0.00041  -0.00105   0.00066
  29        3PZ         0.00199   0.00076  -0.00036  -0.00322   0.00035
  30 4   N  1S         -0.00119  -0.04034   0.00168   0.00710   0.06221
  31        2S          0.00659   0.10215  -0.00351  -0.01617  -0.13871
  32        2PX        -0.23698  -0.04436  -0.02956   0.05012   0.01007
  33        2PY        -0.02459  -0.13907  -0.04276  -0.22443   0.06598
  34        2PZ        -0.04378   0.26601   0.00509  -0.06096  -0.37537
  35        3S          0.00302   0.13311   0.00042  -0.03948  -0.27483
  36        3PX        -0.17845  -0.02417  -0.02518   0.03593   0.03303
  37        3PY        -0.01283  -0.08743  -0.01113  -0.12596   0.04603
  38        3PZ        -0.02145   0.20715   0.01351  -0.03688  -0.24898
  39        4S          0.07179  -0.19733   0.07386  -0.12443  -0.05159
  40        4PX         0.00258   0.02731   0.00497  -0.02241  -0.02249
  41        4PY        -0.01600   0.00114  -0.00874  -0.01238   0.00675
  42        4PZ        -0.01842   0.06953  -0.01548   0.02702  -0.05112
  43        5XX        -0.01490   0.01236  -0.00878   0.01201   0.00805
  44        5YY         0.01191   0.00024   0.00630  -0.01078  -0.00348
  45        5ZZ         0.00121  -0.02183   0.00280   0.00198   0.01682
  46        5XY         0.00320   0.00117   0.00746   0.02009   0.00172
  47        5XZ         0.01465   0.01140   0.00977  -0.00292   0.00611
  48        5YZ         0.00112   0.00579   0.00875   0.00510  -0.00657
  49 5   N  1S          0.01986   0.01976  -0.05194   0.04318   0.01993
  50        2S         -0.04584  -0.04866   0.11756  -0.09689  -0.03733
  51        2PX         0.12525  -0.08766   0.25171  -0.06892   0.01298
  52        2PY        -0.24150   0.14105  -0.09818   0.15424  -0.02771
  53        2PZ         0.20302   0.06277  -0.17704   0.30067   0.24841
  54        3S         -0.08206  -0.03919   0.25333  -0.17568  -0.09246
  55        3PX         0.06931  -0.05201   0.16408  -0.05155   0.00420
  56        3PY        -0.13703   0.09121  -0.06299   0.10715  -0.01140
  57        3PZ         0.11402   0.06284  -0.11328   0.21769   0.16374
  58        4S         -0.09265   0.16590  -0.03189   0.11433  -0.05419
  59        4PX        -0.00938   0.02485   0.00487   0.00322  -0.00885
  60        4PY        -0.02094   0.03650  -0.03450   0.05240  -0.01351
  61        4PZ        -0.00673   0.04349  -0.03879   0.05839   0.01985
  62        5XX        -0.00295  -0.00838   0.00013  -0.00291   0.00148
  63        5YY        -0.01464   0.00437  -0.00192  -0.00358  -0.00143
  64        5ZZ         0.02102   0.00964  -0.00761   0.01782   0.00612
  65        5XY         0.01548  -0.00861   0.00566  -0.00730   0.01147
  66        5XZ         0.00550   0.00007   0.01798  -0.00326  -0.00515
  67        5YZ        -0.00530   0.00278  -0.00628   0.01011   0.00733
  68 6   H  1S          0.08413  -0.01629  -0.09764   0.03492   0.08307
  69        2S          0.06983  -0.03060  -0.08885   0.01359   0.08071
  70        3PX         0.00699  -0.00239   0.00238   0.00040   0.00343
  71        3PY        -0.00359   0.00287  -0.00709   0.00666   0.00210
  72        3PZ         0.00185   0.00296  -0.00108   0.00660   0.00234
  73 7   Cl 1S          0.00593   0.00181  -0.00084   0.00052   0.00207
  74        2S         -0.02848  -0.00897   0.00308  -0.00227  -0.00809
  75        2PX        -0.08439  -0.12273  -0.08526   0.08838   0.00848
  76        2PY        -0.02810   0.04169  -0.18215  -0.17746   0.05807
  77        2PZ         0.09107  -0.12366  -0.11853   0.02230  -0.18554
  78        3S          0.05908   0.01795  -0.00908   0.00343   0.02280
  79        3PX         0.21632   0.31720   0.22347  -0.23194  -0.02155
  80        3PY         0.07177  -0.10827   0.47804   0.46565  -0.15349
  81        3PZ        -0.23397   0.32112   0.31117  -0.05900   0.48941
  82        4S          0.07632   0.04757  -0.00086   0.01095  -0.00201
  83        4PX         0.05792   0.12724   0.10486  -0.11650   0.00715
  84        4PY         0.03258  -0.05080   0.24156   0.24962  -0.07843
  85        4PZ        -0.08463   0.16214   0.16025  -0.02795   0.25621
  86        5S         -0.02961   0.01800  -0.02088   0.08184   0.02145
  87        5PX         0.01852   0.00311   0.01780  -0.04099  -0.00644
  88        5PY         0.00122  -0.00299   0.02531   0.02919  -0.01196
  89        5PZ        -0.01075   0.00897   0.01443   0.00117   0.03951
  90        6XX        -0.01932  -0.02267  -0.00953   0.00894   0.01559
  91        6YY         0.00849   0.00370   0.00288  -0.00179  -0.00159
  92        6ZZ        -0.00327   0.01301   0.00306  -0.00290  -0.00948
  93        6XY        -0.00508   0.00480  -0.00272   0.00161  -0.00158
  94        6XZ         0.02121  -0.00842   0.00196  -0.00442   0.00197
  95        6YZ         0.00072  -0.00421   0.00422  -0.00331   0.00162
                          21        22        23        24        25
                           V         V         V         V         V
     Eigenvalues --    -0.01314   0.01522   0.02993   0.03565   0.05242
   1 1   C  1S          0.00504   0.02583   0.04135   0.01589  -0.01029
   2        2S         -0.00489  -0.11600  -0.10926  -0.02420  -0.00921
   3        2PX        -0.04217   0.06769   0.02869  -0.06483  -0.07188
   4        2PY         0.02000  -0.07236  -0.02240  -0.01820  -0.04666
   5        2PZ        -0.07923  -0.03229   0.02336   0.05837   0.09986
   6        3S         -0.06507   0.17150  -0.16963  -0.16553   0.27074
   7        3PX        -0.09880   0.11897   0.13431  -0.16681   0.05415
   8        3PY         0.04128  -0.26150   0.00017  -0.03919  -0.10604
   9        3PZ        -0.12583   0.02518   0.11292  -0.04039   0.04597
  10        4S          0.43722   4.03587  -1.64094  -2.68205   2.74014
  11        4PX        -0.25039  -0.16530  -0.32109  -1.35395   1.59755
  12        4PY        -0.20226  -1.26119   1.95455   0.86928  -0.73515
  13        4PZ        -0.03105   0.27902   0.22963  -1.57927  -0.74196
  14        5XX         0.02188   0.00390  -0.00194  -0.00025  -0.00286
  15        5YY        -0.00748  -0.00565   0.01728  -0.00139  -0.00252
  16        5ZZ        -0.01374  -0.00016  -0.00596   0.00716  -0.00194
  17        5XY        -0.00910  -0.00906  -0.00072  -0.00285   0.00318
  18        5XZ         0.00457  -0.00157   0.00312   0.01314  -0.00156
  19        5YZ         0.01023  -0.00298   0.00441  -0.01739  -0.00466
  20 2   H  1S         -0.03736   0.00576  -0.00700   0.00914  -0.00633
  21        2S         -0.12247   0.03850  -0.04761  -0.03854  -0.20178
  22        3PX        -0.00402   0.00075   0.00155  -0.00393   0.00440
  23        3PY        -0.00250   0.00001   0.00961   0.00582   0.00565
  24        3PZ         0.00178  -0.00495  -0.00262  -0.00878  -0.00871
  25 3   H  1S          0.03446   0.00477   0.00071  -0.02279   0.00893
  26        2S          0.06435  -0.15641  -0.08310  -0.01768   0.19885
  27        3PX        -0.00496  -0.01170  -0.00381  -0.00059   0.00738
  28        3PY         0.00082   0.00279   0.01008  -0.00086  -0.00632
  29        3PZ        -0.00371   0.00726   0.00335  -0.00764  -0.00380
  30 4   N  1S         -0.07917   0.01007  -0.00011  -0.01484   0.00935
  31        2S          0.16885  -0.03096   0.01083   0.05959  -0.01827
  32        2PX         0.31116  -0.08297   0.05282  -0.13214   0.03677
  33        2PY         0.03345   0.01408   0.00301   0.05667  -0.00324
  34        2PZ        -0.24252  -0.03209  -0.01598   0.01435  -0.04330
  35        3S          0.63265  -0.03497  -0.04658   0.03561  -0.07708
  36        3PX         0.31501  -0.08372   0.11618  -0.14995   0.02883
  37        3PY         0.05468  -0.04219   0.01159   0.02976  -0.02461
  38        3PZ        -0.31273   0.04155   0.04545  -0.06284   0.03059
  39        4S          1.18486  -1.17781  -1.31681   3.61108  -2.12658
  40        4PX         0.54134   0.07810  -0.04504  -1.00665   0.20420
  41        4PY         0.05199  -0.31857  -0.18445   0.43482  -0.01557
  42        4PZ        -0.31114  -0.04329   0.71090  -0.33853   0.64584
  43        5XX        -0.02382  -0.00893  -0.00139   0.01610  -0.00026
  44        5YY        -0.00887  -0.00462   0.00007   0.00260   0.00151
  45        5ZZ         0.00987   0.00427   0.00189  -0.00570  -0.00152
  46        5XY         0.00195   0.00189   0.00519   0.00040  -0.00337
  47        5XZ        -0.00781  -0.00168   0.00031   0.00305  -0.00117
  48        5YZ        -0.00689  -0.00136   0.00494   0.00096   0.00018
  49 5   N  1S          0.02459   0.02955  -0.03036   0.00560   0.01159
  50        2S         -0.04999  -0.09335   0.08466  -0.01064  -0.05148
  51        2PX        -0.07048   0.07827  -0.06953  -0.00123  -0.00620
  52        2PY        -0.00601   0.03613   0.05749  -0.08057   0.02007
  53        2PZ         0.00328  -0.03850   0.04251   0.01810   0.01843
  54        3S         -0.19711  -0.15138   0.19902  -0.06127   0.02976
  55        3PX        -0.08616   0.13876  -0.03566  -0.03637   0.01356
  56        3PY         0.00398   0.01435   0.06793  -0.10417   0.00362
  57        3PZ        -0.03481  -0.12022   0.10288  -0.02343   0.04427
  58        4S         -0.42759  -2.84824   2.90339  -1.49958   0.03942
  59        4PX        -0.09524   0.06335   0.17067  -0.32676   0.07620
  60        4PY        -0.11834  -0.66221   0.54037  -0.59061  -0.29652
  61        4PZ         0.03505  -0.16385  -0.01366  -0.34828   0.49762
  62        5XX         0.01927  -0.00166   0.00455  -0.00356  -0.00234
  63        5YY         0.00202  -0.00671  -0.00463  -0.00545  -0.00351
  64        5ZZ        -0.01114  -0.00392   0.00199   0.00856  -0.00218
  65        5XY         0.00665   0.00582   0.00037  -0.00339  -0.00208
  66        5XZ         0.00299   0.00332   0.00061   0.00532  -0.00306
  67        5YZ        -0.00559  -0.00039   0.00432   0.00652   0.00408
  68 6   H  1S          0.05699   0.01885  -0.00996  -0.02820   0.00527
  69        2S          0.13949   0.28703  -0.08635  -0.03878  -0.12560
  70        3PX        -0.00470  -0.00589   0.00270   0.00294  -0.00197
  71        3PY        -0.00008  -0.00131   0.00686   0.00021  -0.00312
  72        3PZ        -0.00309   0.00645  -0.00459  -0.00525   0.00264
  73 7   Cl 1S         -0.01715  -0.00048  -0.00539   0.00779  -0.01340
  74        2S          0.08557  -0.00338   0.02054  -0.02991   0.05314
  75        2PX        -0.15571   0.01637  -0.00817   0.01674   0.01688
  76        2PY        -0.01469   0.00176   0.02431   0.00000   0.00059
  77        2PZ         0.06207  -0.01978   0.01071  -0.02349  -0.01629
  78        3S         -0.16344  -0.01929  -0.06868   0.09821  -0.16669
  79        3PX         0.42202  -0.03903   0.02911  -0.05128  -0.02989
  80        3PY         0.03988  -0.00440  -0.06483   0.00334  -0.00080
  81        3PZ        -0.16631   0.05493  -0.03210   0.06222   0.04125
  82        4S         -0.46835   0.11371   0.03416  -0.00418  -0.05993
  83        4PX         0.50583  -0.16790  -0.08950   0.03516  -0.29257
  84        4PY         0.04157  -0.00776  -0.07980  -0.04315  -0.01618
  85        4PZ        -0.21482   0.05340  -0.00079   0.09198   0.09524
  86        5S         -0.86634   0.00617   1.09508   1.15040  -0.43363
  87        5PX         0.64615  -0.01106  -0.25727  -0.67932   0.88955
  88        5PY         0.06398   0.07704   0.14530   0.00398  -0.21423
  89        5PZ        -0.25824   0.08139  -0.08874   0.04456  -0.09772
  90        6XX         0.07750  -0.01250   0.00155  -0.00797   0.00002
  91        6YY        -0.03149   0.00533  -0.00149   0.00531   0.00171
  92        6ZZ        -0.01767  -0.00207  -0.00047   0.00471   0.00305
  93        6XY         0.00966  -0.00219  -0.00124  -0.00511  -0.00136
  94        6XZ        -0.04817   0.01780  -0.00893   0.00608   0.00190
  95        6YZ        -0.00323  -0.00014  -0.00008   0.00192  -0.00510
                          26        27        28        29        30
                           V         V         V         V         V
     Eigenvalues --     0.09224   0.09975   0.10717   0.11466   0.13037
   1 1   C  1S         -0.00032  -0.02146  -0.00121  -0.00642  -0.03492
   2        2S          0.00449   0.03754  -0.00714   0.02462   0.10319
   3        2PX        -0.09380  -0.02439  -0.02964   0.14613  -0.08086
   4        2PY        -0.05829  -0.01840  -0.06335   0.08902  -0.08987
   5        2PZ        -0.13755   0.00420  -0.04794   0.06644  -0.09149
   6        3S         -0.02365   0.27062   0.06735   0.02203   0.16137
   7        3PX        -0.10408   0.00750   0.04580   0.03816  -0.18942
   8        3PY        -0.06709   0.12298  -0.11041   0.11895   0.06887
   9        3PZ        -0.18183  -0.13356  -0.09452   0.12012  -0.18480
  10        4S         -1.49503  -2.11470   0.09369  -0.58070  -3.15915
  11        4PX        -1.15037   0.03238   0.37894  -0.43385  -0.91099
  12        4PY         0.30951   1.33764   0.45829   0.49544   1.46864
  13        4PZ        -0.41019  -0.56060   0.19887   0.70027  -0.07844
  14        5XX         0.00559   0.00165  -0.00177  -0.01040   0.00068
  15        5YY        -0.00679  -0.00154   0.00186   0.01113  -0.01109
  16        5ZZ         0.00343  -0.01039  -0.00453  -0.00289  -0.00032
  17        5XY        -0.00684  -0.00204  -0.00149   0.00756  -0.00262
  18        5XZ         0.00484   0.00588  -0.00350  -0.00051   0.00529
  19        5YZ        -0.00684   0.00294   0.00329   0.00249  -0.00583
  20 2   H  1S          0.00137  -0.04661  -0.00390   0.00709  -0.02195
  21        2S          0.07677  -0.25661   0.01066   0.13100   0.03382
  22        3PX        -0.00754  -0.00091  -0.00013   0.00311  -0.00344
  23        3PY        -0.00568   0.00384   0.00045   0.00043  -0.00253
  24        3PZ        -0.00257   0.00123  -0.00130   0.01062   0.00337
  25 3   H  1S         -0.00919  -0.00701   0.01322  -0.02301  -0.03556
  26        2S         -0.05378  -0.00042   0.16753  -0.16946  -0.13778
  27        3PX        -0.00790   0.00340  -0.00007   0.00385  -0.00327
  28        3PY        -0.00112   0.00078   0.00030   0.00803  -0.00397
  29        3PZ        -0.00375  -0.00457   0.00047   0.00470  -0.00610
  30 4   N  1S          0.01745  -0.01487   0.00249   0.00697   0.01584
  31        2S         -0.04865   0.01991  -0.01978   0.01755  -0.01529
  32        2PX        -0.00742   0.06068   0.10228  -0.12496  -0.07942
  33        2PY         0.22105  -0.01191   0.07659  -0.20655   0.10947
  34        2PZ         0.07816  -0.07047   0.02422   0.03851   0.12554
  35        3S         -0.09527   0.21448   0.03681  -0.23102  -0.23691
  36        3PX        -0.03631   0.18461   0.12336  -0.22844  -0.14669
  37        3PY         0.23675   0.02983   0.09050  -0.28981   0.25457
  38        3PZ         0.07212  -0.06897   0.03456   0.04028   0.18173
  39        4S         -2.97286  -0.20029  -2.13618   6.69314   0.43491
  40        4PX         0.28996  -1.25259   0.74833  -0.51613   0.67075
  41        4PY         1.08954  -0.06605   0.38990  -0.46379   0.26779
  42        4PZ         1.30097  -0.05141   0.85079  -1.95994  -0.16424
  43        5XX        -0.00089  -0.01533  -0.00164   0.01669   0.00883
  44        5YY         0.00274  -0.00088  -0.00177   0.00773   0.00986
  45        5ZZ         0.00247  -0.00140  -0.00431  -0.00369  -0.00351
  46        5XY         0.01522  -0.00624   0.00675  -0.00772  -0.00666
  47        5XZ         0.00707  -0.00183   0.00350   0.00052   0.00301
  48        5YZ         0.00122  -0.00777  -0.00062  -0.00112  -0.00462
  49 5   N  1S         -0.01549   0.01632  -0.00371   0.00159   0.02145
  50        2S          0.05595  -0.05269   0.00910  -0.00770  -0.03176
  51        2PX         0.12357  -0.03458   0.05800  -0.15939   0.15152
  52        2PY        -0.10164   0.04850   0.03626   0.07213  -0.02994
  53        2PZ         0.13175  -0.02402   0.04994  -0.04931  -0.04162
  54        3S          0.02229  -0.01047   0.03756   0.05074  -0.24709
  55        3PX         0.10406  -0.01031   0.08075  -0.22089   0.16931
  56        3PY        -0.14970   0.11774   0.04067   0.12579   0.08557
  57        3PZ         0.14955   0.03545   0.06342  -0.06726   0.00707
  58        4S          3.85134   0.20927   2.17673  -4.57176   3.89125
  59        4PX         1.60289  -0.77546   0.18912  -1.33668  -0.05540
  60        4PY         0.72044  -0.68514   0.02143  -1.06055  -0.47671
  61        4PZ         0.89989  -0.01089   0.80584  -1.76415   1.18252
  62        5XX        -0.00820   0.00266  -0.00574   0.00050  -0.00235
  63        5YY         0.00763   0.01056   0.00851  -0.00393   0.03221
  64        5ZZ         0.00407  -0.00687  -0.00378   0.00453   0.00038
  65        5XY        -0.00453   0.00097  -0.00150  -0.00326  -0.00145
  66        5XZ        -0.01124   0.00531  -0.00734   0.00846   0.00029
  67        5YZ        -0.00869   0.00480  -0.00210   0.01233  -0.00128
  68 6   H  1S          0.00365   0.01279   0.02182  -0.04724   0.01892
  69        2S          0.01142  -0.24152  -0.06232   0.02789  -0.40368
  70        3PX         0.01114  -0.00366   0.00254  -0.00297  -0.00189
  71        3PY         0.00082  -0.00840  -0.00251   0.00361  -0.01735
  72        3PZ         0.00502  -0.00194   0.00524  -0.00938   0.00533
  73 7   Cl 1S         -0.00382  -0.00207  -0.00001   0.00208   0.00278
  74        2S          0.01542   0.00908  -0.00500   0.00121  -0.00845
  75        2PX         0.03703  -0.04182  -0.04161   0.06131   0.04566
  76        2PY        -0.02064  -0.03312  -0.02724  -0.03690   0.02286
  77        2PZ         0.01218   0.05470  -0.03462  -0.02345  -0.01123
  78        3S         -0.04734  -0.02167  -0.01255   0.04803   0.04026
  79        3PX        -0.08920   0.11496   0.10555  -0.16442  -0.12112
  80        3PY         0.04557   0.08234   0.06348   0.08926  -0.05505
  81        3PZ        -0.03073  -0.13912   0.07909   0.06222   0.02885
  82        4S         -0.01449  -0.00329   0.17651  -0.37549  -0.12258
  83        4PX        -0.29513   0.15083   0.21817  -0.23073  -0.23795
  84        4PY         0.18802   0.21199   0.22536   0.27605  -0.18709
  85        4PZ        -0.06847  -0.32965   0.29846   0.11991   0.07031
  86        5S          1.16775   2.37997  -0.41658  -0.59785   0.29933
  87        5PX         0.22055  -1.51901  -0.52301   0.98318   0.30571
  88        5PY        -0.58117  -0.71178  -0.80431  -0.60343   0.72991
  89        5PZ         0.23573   1.20137  -1.25917  -0.35361  -0.43873
  90        6XX        -0.00507   0.00106  -0.00738  -0.00546  -0.01808
  91        6YY        -0.00619   0.00732  -0.00935   0.02826   0.02186
  92        6ZZ         0.01373  -0.01188   0.00670  -0.00026   0.00392
  93        6XY        -0.02509  -0.00353  -0.01592   0.00229   0.00927
  94        6XZ         0.00812   0.00053  -0.03310   0.00885  -0.00101
  95        6YZ         0.02309  -0.00182   0.00582  -0.00768   0.00840
                          31        32        33        34        35
                           V         V         V         V         V
     Eigenvalues --     0.14417   0.15239   0.17194   0.18056   0.19259
   1 1   C  1S          0.02132  -0.02611   0.05341   0.02954  -0.03073
   2        2S         -0.01557   0.04969  -0.05986  -0.04334   0.04304
   3        2PX         0.12385   0.17625  -0.04744  -0.10753  -0.06852
   4        2PY         0.01360   0.04295   0.01791  -0.12333   0.08136
   5        2PZ         0.11081   0.10085   0.01001  -0.07640  -0.02580
   6        3S         -0.43642   0.28055  -0.88728  -0.54208   0.51438
   7        3PX         0.39752   0.38844  -0.02309  -0.18781  -0.08716
   8        3PY         0.00714   0.10950   0.08290  -0.47974   0.40691
   9        3PZ         0.17949   0.25462   0.07434  -0.15295  -0.03982
  10        4S          0.86704  -6.31654  -0.53502  -3.31094  -3.50172
  11        4PX         0.79748  -2.64663   0.57370  -0.07265   0.18712
  12        4PY         0.28332   1.24459  -0.15047   1.27840   1.87110
  13        4PZ        -0.60532  -0.40919  -0.14641   1.07422   0.52408
  14        5XX         0.00328   0.00533   0.01230   0.01741   0.00475
  15        5YY         0.00405  -0.00151   0.01105  -0.01964  -0.01796
  16        5ZZ         0.00944  -0.00971   0.00691   0.01716  -0.00368
  17        5XY        -0.00304   0.00274   0.00620  -0.00872  -0.00847
  18        5XZ        -0.00740  -0.00897  -0.00063   0.00236   0.01830
  19        5YZ         0.00320   0.00823   0.00372  -0.02248  -0.01031
  20 2   H  1S          0.00415  -0.02428   0.01625   0.04968  -0.03924
  21        2S         -0.03124   0.13973  -0.02424   0.47581  -0.16664
  22        3PX         0.00249   0.00810   0.00456  -0.00104  -0.00862
  23        3PY         0.00461  -0.00448   0.00564  -0.00470  -0.00275
  24        3PZ        -0.00316   0.00746  -0.00232  -0.00777   0.00139
  25 3   H  1S          0.03236   0.01850   0.01191   0.02104  -0.05567
  26        2S          0.18061   0.16710  -0.03830   0.23842  -0.40389
  27        3PX         0.00044  -0.00104  -0.00436  -0.00895  -0.00118
  28        3PY        -0.00094  -0.00073  -0.00230  -0.00706  -0.00256
  29        3PZ         0.00361  -0.00046  -0.00025  -0.00114  -0.00949
  30 4   N  1S          0.00807   0.01668   0.00049  -0.06370  -0.01714
  31        2S          0.01347  -0.02316   0.01341   0.12548   0.02945
  32        2PX        -0.04280   0.06726  -0.00115  -0.14041  -0.21459
  33        2PY        -0.09629  -0.11901   0.00542   0.05152  -0.01976
  34        2PZ        -0.02114  -0.00112   0.07706  -0.10384  -0.16134
  35        3S         -0.24450  -0.28973  -0.14986   0.66589   0.40314
  36        3PX        -0.02087   0.18043   0.01844  -0.11562  -0.35494
  37        3PY        -0.10280  -0.20107  -0.03581   0.12974   0.04669
  38        3PZ        -0.02909   0.01043   0.20045  -0.05875  -0.25869
  39        4S         -1.62754  -0.75857  -2.17721  -1.28993  -5.86156
  40        4PX         0.21008  -1.05233   1.18974  -2.15387   2.25695
  41        4PY        -0.55071  -0.05707   1.55269  -1.08348  -0.01295
  42        4PZ         0.32525   0.46960  -0.74741  -0.80575   3.07768
  43        5XX         0.00615  -0.00283  -0.00385  -0.01333  -0.00528
  44        5YY         0.00559   0.01024   0.00425  -0.01961  -0.00745
  45        5ZZ         0.01369   0.00461  -0.00177  -0.01547   0.00627
  46        5XY        -0.01042  -0.01174   0.01343  -0.00873  -0.01011
  47        5XZ        -0.01102   0.00504   0.00478  -0.01746   0.00649
  48        5YZ        -0.00903  -0.00518   0.01446  -0.01124  -0.00788
  49 5   N  1S          0.00582  -0.00557  -0.02058   0.07571   0.03248
  50        2S         -0.00127  -0.00047   0.04817  -0.12415  -0.07294
  51        2PX        -0.05412  -0.11096   0.14971  -0.06267   0.00644
  52        2PY         0.04069   0.04908   0.05593  -0.17954  -0.12524
  53        2PZ        -0.22801  -0.04422   0.00645  -0.09901  -0.09947
  54        3S         -0.22749   0.10803   0.19961  -1.08699  -0.30589
  55        3PX        -0.09486  -0.18582   0.23242  -0.04543   0.10926
  56        3PY         0.04801   0.08876   0.04482  -0.33930  -0.16782
  57        3PZ        -0.36057  -0.06373   0.04445  -0.05232  -0.03812
  58        4S          2.35711   1.55963   2.79494   0.77028   9.61317
  59        4PX         0.33510   0.04479  -1.10687  -0.43321  -0.52888
  60        4PY         1.06024   0.53387   0.72481   0.90393   2.14267
  61        4PZ         1.52987   0.20588   1.87612  -1.01692   1.04986
  62        5XX         0.00920   0.00281   0.00899   0.02663   0.01556
  63        5YY        -0.00278  -0.00220  -0.00980   0.00580  -0.00355
  64        5ZZ        -0.00491  -0.00949  -0.00256   0.02839   0.00412
  65        5XY         0.00508  -0.00086   0.00468   0.00444   0.00910
  66        5XZ        -0.00119  -0.00729   0.00223   0.00341   0.01670
  67        5YZ        -0.00935  -0.00131  -0.00175   0.00030   0.00112
  68 6   H  1S          0.03069   0.00779   0.01169   0.02192   0.00257
  69        2S         -0.06083  -0.05788  -0.44728   0.12913  -0.34039
  70        3PX        -0.00691  -0.00318  -0.01287  -0.00676  -0.01124
  71        3PY        -0.00128   0.00348   0.00092  -0.00270  -0.00582
  72        3PZ         0.00641  -0.00102   0.00461  -0.00218  -0.00599
  73 7   Cl 1S          0.00531  -0.01317  -0.00633  -0.00410   0.00483
  74        2S         -0.03339   0.07532   0.04043   0.02159  -0.02910
  75        2PX         0.01363  -0.02076  -0.00361  -0.01509   0.02725
  76        2PY        -0.02481  -0.00372   0.00902  -0.00773  -0.01271
  77        2PZ        -0.01098  -0.00570   0.00444  -0.02712  -0.01635
  78        3S          0.03558  -0.10758  -0.04191  -0.03759   0.03642
  79        3PX        -0.03643   0.06408   0.00928   0.04570  -0.06570
  80        3PY         0.06057   0.01123  -0.02477   0.01848   0.03496
  81        3PZ         0.03132   0.00861  -0.01131   0.06868   0.04852
  82        4S          0.49186  -0.94370  -0.68545  -0.14285   0.38596
  83        4PX        -0.10899   0.06654   0.09764   0.00803  -0.39101
  84        4PY         0.21071   0.00291  -0.06424   0.07920   0.06833
  85        4PZ         0.04256   0.09902  -0.03933   0.23379   0.03644
  86        5S         -1.62359   6.37685   0.66254   3.86134   0.74753
  87        5PX         1.03424  -3.05668  -0.55103  -1.66584  -0.43445
  88        5PY        -0.40556   0.61495  -0.88592   0.01616  -0.24546
  89        5PZ         0.01359   0.10816   0.10767   0.71336  -1.07532
  90        6XX         0.01821  -0.02754  -0.01654   0.01851  -0.02706
  91        6YY        -0.01187   0.03485   0.02638   0.00966  -0.00917
  92        6ZZ        -0.02893   0.03623   0.01947  -0.02098   0.01809
  93        6XY         0.00450   0.02579  -0.04107   0.00552   0.00272
  94        6XZ         0.01187   0.00662   0.00756   0.03924   0.00212
  95        6YZ        -0.02471  -0.01397   0.01341  -0.00152  -0.00094
                          36        37        38        39        40
                           V         V         V         V         V
     Eigenvalues --     0.21364   0.23537   0.26522   0.26747   0.28448
   1 1   C  1S         -0.01795   0.00551   0.03674   0.06428  -0.03274
   2        2S          0.00312  -0.00210  -0.07323  -0.10530   0.06963
   3        2PX        -0.13883   0.05609  -0.10041   0.08638  -0.09518
   4        2PY        -0.01054  -0.09537   0.05587  -0.19262  -0.18626
   5        2PZ         0.07515  -0.13287  -0.04032   0.04087   0.26674
   6        3S          0.60524  -0.20587  -0.52170  -1.00447   0.15266
   7        3PX        -0.55288   0.25062  -0.30873   0.42723  -0.44360
   8        3PY         0.01432  -0.38828  -0.03548  -0.92211  -0.85360
   9        3PZ         0.25835  -0.43761  -0.06741   0.14279   1.14388
  10        4S          8.72727  -2.07323  -8.49662   0.39536  -4.83779
  11        4PX         1.83761   0.33957  -2.21947   0.29123  -1.50700
  12        4PY        -2.57162   1.07297   1.94808  -0.21169   1.62579
  13        4PZ         1.42894   0.40840  -1.18183   0.05446   0.24458
  14        5XX        -0.00496   0.00671  -0.00914   0.00108   0.00055
  15        5YY         0.00703  -0.00065   0.00617   0.00016  -0.00214
  16        5ZZ        -0.01085  -0.00189   0.00055   0.00008   0.01733
  17        5XY         0.01147  -0.00688   0.00207  -0.01123   0.02865
  18        5XZ         0.01463  -0.01492  -0.00092  -0.01793  -0.00905
  19        5YZ        -0.01425   0.01587  -0.01562  -0.01414  -0.01567
  20 2   H  1S          0.02440  -0.02445   0.07266   0.11448   0.08900
  21        2S          0.15793  -0.24220   1.07397   1.82725   1.55346
  22        3PX        -0.00080   0.00422  -0.00371   0.00260   0.00607
  23        3PY         0.00671  -0.00577   0.00505  -0.00213   0.00071
  24        3PZ        -0.00036  -0.00006   0.00692  -0.00255  -0.00178
  25 3   H  1S         -0.06283   0.06883   0.00258   0.11317  -0.07237
  26        2S         -0.91489   0.99005  -0.06525   1.94434  -1.44968
  27        3PX        -0.00280  -0.00249   0.00164  -0.00347   0.00243
  28        3PY        -0.00070   0.00080  -0.00309  -0.00303  -0.01551
  29        3PZ        -0.00495   0.00146   0.00319   0.00009   0.00898
  30 4   N  1S         -0.01853   0.05557  -0.01513  -0.01650   0.06198
  31        2S          0.00556  -0.05838   0.03035   0.02544  -0.06647
  32        2PX        -0.00915   0.10728   0.00129  -0.06644   0.20304
  33        2PY         0.12456   0.16680   0.04817  -0.01117  -0.05737
  34        2PZ        -0.00026   0.14125  -0.09047  -0.04471  -0.05853
  35        3S          0.42335  -1.03092   0.28050   0.28878  -1.32576
  36        3PX        -0.08612   0.14499   0.12730  -0.19269   0.53373
  37        3PY         0.26563   0.36626   0.10281  -0.07131  -0.21021
  38        3PZ        -0.02842   0.22185  -0.25761  -0.02220  -0.20330
  39        4S          1.10880  14.27921   6.06473  -4.43336   6.21844
  40        4PX         1.72730  -2.57616  -6.64199   3.95526  -0.45589
  41        4PY        -2.34849  -3.29409   0.09618   0.85243   0.31872
  42        4PZ        -2.19836  -3.37700  -0.35894   2.05015  -0.73652
  43        5XX         0.00466   0.01232   0.00717   0.00406   0.02355
  44        5YY         0.00106   0.02529  -0.01604  -0.01843   0.02548
  45        5ZZ        -0.02595   0.02404   0.00700   0.00029   0.02201
  46        5XY        -0.00095   0.00825   0.01134  -0.00398  -0.01052
  47        5XZ         0.01003   0.00679  -0.01533   0.01574  -0.01456
  48        5YZ        -0.00203  -0.01112   0.00342  -0.00247   0.00912
  49 5   N  1S         -0.06220  -0.01120  -0.05712  -0.00504   0.03821
  50        2S          0.08022   0.02720   0.05840   0.01557  -0.03027
  51        2PX        -0.06983   0.21905  -0.01928  -0.09514   0.07307
  52        2PY        -0.14214   0.00679  -0.02297  -0.04742  -0.08452
  53        2PZ         0.07827   0.15822  -0.03688  -0.01872   0.01495
  54        3S          1.05048   0.05982   0.99608   0.03250  -0.90612
  55        3PX        -0.24741   0.47461   0.04499  -0.17607   0.10612
  56        3PY        -0.40360  -0.08852  -0.04801  -0.17037  -0.27888
  57        3PZ         0.05679   0.25200  -0.11932  -0.07597   0.02892
  58        4S         -7.71090 -11.97130  -6.72278   6.07576   1.37029
  59        4PX        -1.02193  -3.88558  -2.27228   0.66570  -0.50821
  60        4PY        -0.53532  -0.88494  -1.90911   0.12597   0.25028
  61        4PZ        -0.40412  -4.02122  -1.82275   1.47972  -0.71831
  62        5XX        -0.02259  -0.01196  -0.01919  -0.00216   0.01752
  63        5YY        -0.02522   0.00237  -0.02808   0.00205   0.01225
  64        5ZZ        -0.02104   0.00400  -0.02293  -0.00952   0.01431
  65        5XY        -0.01970   0.00981   0.00354   0.00993  -0.02072
  66        5XZ         0.00631  -0.00165   0.01069   0.00235  -0.00820
  67        5YZ         0.00309  -0.01207   0.01297   0.00970   0.00439
  68 6   H  1S         -0.13561   0.04155  -0.06171  -0.02835  -0.03709
  69        2S         -0.88424   0.71510  -0.65131  -0.38583  -0.33384
  70        3PX         0.00906   0.00690   0.00126  -0.00073  -0.00360
  71        3PY         0.00499   0.00294   0.00614  -0.00404   0.00150
  72        3PZ        -0.00542   0.00396  -0.00413  -0.01198   0.00355
  73 7   Cl 1S          0.00107  -0.00351   0.00184   0.00183  -0.00876
  74        2S          0.00838   0.02426  -0.00935  -0.01547   0.04299
  75        2PX         0.00442   0.00097   0.01752   0.00033  -0.02500
  76        2PY        -0.00198   0.00740   0.01908   0.00549  -0.01066
  77        2PZ         0.00944   0.00598  -0.00681   0.01044   0.00328
  78        3S          0.04560  -0.02018   0.01848   0.00257  -0.09216
  79        3PX        -0.02072  -0.00608  -0.03747   0.00286   0.06204
  80        3PY        -0.00251  -0.02710  -0.05219  -0.01825   0.02803
  81        3PZ        -0.02465  -0.01719   0.01320  -0.01567  -0.00180
  82        4S         -0.46699  -0.60224   0.22030   0.25824  -0.53722
  83        4PX         0.19976   0.13748  -0.38544  -0.15155   0.46591
  84        4PY         0.13820   0.07420  -0.15012   0.01450   0.09071
  85        4PZ        -0.07153  -0.04473   0.15696  -0.25493  -0.17634
  86        5S         -3.70372   0.33427   9.26661  -3.06574  -0.01217
  87        5PX         1.19322  -0.14206  -3.51548   1.16551   0.08358
  88        5PY         0.09404   0.18083  -0.01707   0.04913   0.03119
  89        5PZ        -0.17407   0.03128   0.86842  -0.79229  -0.25499
  90        6XX        -0.00831  -0.00907   0.02084  -0.01497   0.03473
  91        6YY         0.02848   0.01736  -0.00056  -0.02055  -0.00735
  92        6ZZ         0.00156   0.01430  -0.02362   0.02207  -0.01265
  93        6XY        -0.00594  -0.03003  -0.02143  -0.00408   0.02492
  94        6XZ        -0.02097  -0.00749  -0.02404  -0.01245  -0.02196
  95        6YZ        -0.02580  -0.02831   0.00458  -0.01374  -0.00705
                          41        42        43        44        45
                           V         V         V         V         V
     Eigenvalues --     0.30985   0.32690   0.36796   0.59193   0.61931
   1 1   C  1S          0.01265  -0.14375  -0.00061  -0.00057   0.00977
   2        2S          0.00367   0.16336   0.00025   0.19665   0.22116
   3        2PX         0.04215   0.10971   0.26345   0.29711   0.39288
   4        2PY        -0.09010  -0.21064   0.07083  -0.45547  -0.60128
   5        2PZ        -0.22407  -0.05266  -0.00708   0.04087   0.10255
   6        3S         -0.63581   3.08893  -0.23293  -0.84009  -0.96787
   7        3PX        -0.10614   0.87393   1.12661  -0.67507  -1.03837
   8        3PY        -0.16821  -1.70728   0.25360   0.98508   1.56037
   9        3PZ        -1.12712  -0.04453   0.08040  -0.12698  -0.14325
  10        4S          0.15492   3.78583  -5.14085  -0.13565  -2.25184
  11        4PX         0.19719   0.68002   0.32635   0.03241  -0.34735
  12        4PY        -0.43870  -0.77938   2.16111  -0.50429   0.16443
  13        4PZ        -1.01589  -0.33299  -0.37981   0.05457  -0.03655
  14        5XX         0.02046   0.00833   0.00551  -0.03864   0.02349
  15        5YY        -0.01290  -0.00580  -0.00100   0.01074  -0.00793
  16        5ZZ         0.00443   0.00633   0.00283   0.02271  -0.00566
  17        5XY         0.01015  -0.00826   0.01679   0.01361   0.00302
  18        5XZ         0.00694  -0.01328  -0.00250   0.00778   0.00500
  19        5YZ         0.01241  -0.00260  -0.00352  -0.00847  -0.00027
  20 2   H  1S         -0.05636  -0.00757   0.02825  -0.02734  -0.07160
  21        2S         -1.37044  -0.68351  -0.56006  -0.15096   0.09650
  22        3PX         0.00665   0.00461   0.00332  -0.00473   0.00137
  23        3PY        -0.00248  -0.00953  -0.00300   0.01138   0.01565
  24        3PZ        -0.00231   0.00040   0.00273  -0.00948  -0.00801
  25 3   H  1S          0.00079   0.03033  -0.00754  -0.15368  -0.17660
  26        2S          0.56813   0.10941   0.53121  -0.01349  -0.38536
  27        3PX        -0.00585   0.00029  -0.00466  -0.00843  -0.02172
  28        3PY        -0.00241  -0.00851  -0.00612   0.01101   0.00907
  29        3PZ         0.00498   0.00314   0.00531   0.01269   0.01933
  30 4   N  1S          0.00548   0.00852   0.03266   0.00769   0.01178
  31        2S          0.01344  -0.01585  -0.05543  -0.26136   0.02009
  32        2PX        -0.15133   0.08895   0.14836  -0.10337   0.20251
  33        2PY        -0.07414  -0.19755   0.00189  -0.04184  -0.02275
  34        2PZ        -0.17352   0.10995   0.13029   0.14344  -0.06197
  35        3S         -0.36654  -0.22895  -0.55765   1.29820   0.18595
  36        3PX        -0.49107   0.37066   0.69240   0.33267  -0.36409
  37        3PY        -0.09602  -0.76404   0.10692   0.07735   0.12037
  38        3PZ        -0.67044   0.44494   0.54098  -0.49431  -0.00803
  39        4S          8.92851  -3.70675 -14.11381   1.70128   1.27070
  40        4PX        -0.21351  -0.40340   0.65051  -0.19033  -1.89612
  41        4PY         0.97616   0.36107   1.31926   0.02341   0.01958
  42        4PZ        -2.18517   0.59362   3.75669  -0.79001  -0.23643
  43        5XX        -0.00629  -0.00240   0.00567   0.06721  -0.01727
  44        5YY         0.02782  -0.00460   0.01051  -0.06072   0.03334
  45        5ZZ         0.03019  -0.01399  -0.01886  -0.06197   0.00887
  46        5XY         0.00003  -0.00886   0.00889  -0.03925  -0.07830
  47        5XZ         0.00235  -0.00584  -0.01349  -0.00232   0.07503
  48        5YZ        -0.00672   0.00239  -0.00195  -0.02033  -0.02873
  49 5   N  1S          0.03780   0.02871  -0.03722   0.01187   0.01274
  50        2S         -0.04156  -0.04284   0.05718  -0.03553  -0.11558
  51        2PX        -0.20562   0.03076  -0.01650   0.10158   0.03311
  52        2PY        -0.18812  -0.29105  -0.02353  -0.04125  -0.08536
  53        2PZ        -0.03182  -0.06638   0.25984  -0.06154  -0.04862
  54        3S         -0.71974  -0.65364   0.63418   0.13700   0.80769
  55        3PX        -0.79609   0.24679  -0.15507  -0.09973   0.02903
  56        3PY        -0.71903  -1.06355  -0.03960   0.06218   0.24405
  57        3PZ        -0.07671  -0.25960   1.06864  -0.02745   0.08269
  58        4S         -3.81451  -3.39040  18.75411  -1.74967  -1.12850
  59        4PX        -0.60262  -0.11879   1.01291  -0.07822  -0.33144
  60        4PY        -0.97714  -0.71081   2.66738   0.16249   0.01698
  61        4PZ         0.47573   0.04723   3.61127  -0.29856  -0.57319
  62        5XX         0.01357  -0.00627  -0.00429  -0.05776  -0.01514
  63        5YY         0.00358   0.00515  -0.00679   0.06931   0.07162
  64        5ZZ         0.00591  -0.01304   0.02539  -0.00574  -0.05167
  65        5XY        -0.01281   0.00611  -0.01270  -0.01079   0.00778
  66        5XZ        -0.00031   0.00375   0.00446  -0.00801  -0.00748
  67        5YZ        -0.02255  -0.01869   0.01156   0.01051   0.01759
  68 6   H  1S         -0.07388   0.01789  -0.14734  -0.03020  -0.00545
  69        2S         -1.33263   0.43958  -3.36685   0.37357  -0.00432
  70        3PX        -0.00004   0.00557  -0.00472   0.00381  -0.00892
  71        3PY        -0.00877  -0.00524  -0.00036  -0.02080  -0.01783
  72        3PZ         0.00254  -0.00767   0.00507   0.00179   0.00182
  73 7   Cl 1S         -0.00589   0.00529   0.00732  -0.00066   0.01311
  74        2S          0.04378  -0.02936  -0.03487   0.04655  -0.03853
  75        2PX        -0.00459   0.00202   0.00062   0.21218  -0.13014
  76        2PY         0.01404  -0.00636  -0.00537   0.00144  -0.03423
  77        2PZ        -0.00300   0.00683  -0.00323  -0.04366   0.09752
  78        3S         -0.02355   0.04683   0.08092   0.10485   0.21734
  79        3PX        -0.00413   0.00579   0.00718  -0.86768   0.56279
  80        3PY        -0.03868   0.02412   0.02266  -0.01345   0.13052
  81        3PZ         0.00042  -0.01995   0.01185   0.18618  -0.39931
  82        4S         -1.00678   0.54542   0.85230  -1.06363  -0.01231
  83        4PX         0.61652  -0.36613  -0.31489   1.87401  -1.26435
  84        4PY        -0.10630  -0.03940  -0.05202   0.09274  -0.17215
  85        4PZ         0.06698  -0.00581   0.02316  -0.49447   0.72482
  86        5S         -2.51621   0.76933   2.82152   0.19065   2.41085
  87        5PX         0.87898  -0.30006  -0.96509  -0.82184  -0.36504
  88        5PY        -0.11135  -0.47230  -0.15296  -0.00847   0.09255
  89        5PZ        -0.29587   0.30754   0.18493   0.28791   0.03625
  90        6XX         0.01203  -0.01159   0.01632   0.10176  -0.18163
  91        6YY         0.05426  -0.00965  -0.04225  -0.03441   0.10501
  92        6ZZ        -0.03525   0.00900   0.01660  -0.00915   0.08663
  93        6XY        -0.02656  -0.00092   0.00150   0.07766   0.09296
  94        6XZ         0.03822  -0.01806  -0.02962  -0.14096   0.00395
  95        6YZ         0.00658  -0.03572   0.01782  -0.01230   0.01202
                          46        47        48        49        50
[...]
  47        5XZ         0.04286   0.16977  -0.21422  -0.08908   0.03306
  48        5YZ         0.33418   0.05900  -0.52555  -0.04857   0.08001
  49 5   N  1S          0.03035  -0.00405  -0.00873   0.07885  -0.07734
  50        2S         -0.15014   0.07337  -0.31158  -0.45674   0.04357
  51        2PX         0.01630  -0.05335   0.08308   0.22450  -0.28275
  52        2PY        -0.04992   0.01293  -0.08292   0.10835  -0.32390
  53        2PZ        -0.10163  -0.01855   0.03369  -0.21723   0.18118
  54        3S         -0.05935  -0.15855   1.15175  -0.44364   1.49059
  55        3PX        -0.60611  -0.28269   0.52900   0.31810  -0.48015
  56        3PY         0.34072   0.00740  -0.06115   0.50698  -0.06365
  57        3PZ        -0.03922   0.46229   1.02217  -0.16865   0.53095
  58        4S          1.35752   2.34414  -0.67008  -0.73151   1.52006
  59        4PX         0.49800   0.13526  -0.48385  -0.16612   0.10880
  60        4PY         0.16785   0.27901   0.04859  -0.14871   0.18697
  61        4PZ         0.30584   0.36488  -0.43216  -0.34134   0.32407
  62        5XX        -0.07265  -0.05157   0.30635   0.03514   0.00320
  63        5YY         0.05380  -0.13947  -0.78648   0.24871  -0.32327
  64        5ZZ         0.15887   0.24642   0.60484   0.16170   0.00497
  65        5XY        -0.46237  -0.25221   0.19490  -0.22372   0.31449
  66        5XZ        -0.46834  -0.23435   0.31176   0.34989  -0.53755
  67        5YZ        -0.00402   0.30329   0.15931   0.27001  -0.32584
  68 6   H  1S         -0.05400   0.01511  -0.15319   0.47500  -0.73715
  69        2S         -0.03717  -0.66773  -0.28185   0.70977  -0.97716
  70        3PX         0.12194  -0.03421  -0.07021   0.47032  -0.58363
  71        3PY        -0.28152  -0.47713  -0.24223   0.41088  -0.60376
  72        3PZ        -0.28660  -0.19756  -0.23763  -0.41690   0.40150
  73 7   Cl 1S         -0.00329   0.00372   0.00004  -0.00069  -0.00338
  74        2S          0.00055  -0.01727  -0.00480   0.02284   0.00468
  75        2PX        -0.00405   0.00776   0.00442  -0.00953   0.00049
  76        2PY        -0.00324  -0.00094   0.00576  -0.00106  -0.00091
  77        2PZ        -0.00274  -0.00561   0.00133   0.00272   0.00208
  78        3S         -0.10862   0.09400  -0.01143   0.01626  -0.11619
  79        3PX         0.03184  -0.02716  -0.02237   0.02783   0.00180
  80        3PY         0.01760   0.00818  -0.03027   0.00282   0.00175
  81        3PZ         0.00642   0.01557  -0.01036  -0.01107  -0.00457
  82        4S          0.15725   0.02286   0.10603  -0.35375   0.17776
  83        4PX        -0.04881   0.03107  -0.05215   0.16381  -0.09588
  84        4PY        -0.00070  -0.02741  -0.03297   0.00410  -0.00887
  85        4PZ         0.02876   0.04023   0.02941  -0.02625   0.00595
  86        5S         -0.06644   0.24776   0.29953  -0.06061  -0.10132
  87        5PX         0.05339  -0.07952  -0.09825  -0.00266   0.06659
  88        5PY         0.01943  -0.01551   0.02275   0.03583   0.01599
  89        5PZ         0.00287  -0.00728   0.06726  -0.04163  -0.04132
  90        6XX         0.00439  -0.02055   0.01727  -0.03801   0.04899
  91        6YY         0.00203  -0.05194  -0.00600   0.06481   0.01962
  92        6ZZ         0.03143  -0.03342  -0.01441   0.05820   0.01524
  93        6XY        -0.00976   0.01076   0.03521  -0.00751  -0.00489
  94        6XZ        -0.02561  -0.05707  -0.00702   0.01286   0.01460
  95        6YZ        -0.00642   0.00685  -0.01529  -0.00394  -0.00331
                          91        92        93        94        95
                           V         V         V         V         V
     Eigenvalues --     3.46700   3.98442   4.10505   4.40400   4.45490
   1 1   C  1S          0.03745  -0.03041  -0.03710  -0.02991  -0.49321
   2        2S         -0.06888  -0.00221   0.00694   0.24372   2.71382
   3        2PX         0.47862   0.02528  -0.01073   0.01818  -0.01196
   4        2PY        -0.07443  -0.07342  -0.01750  -0.02055  -0.01029
   5        2PZ        -0.52522   0.04122   0.00612   0.00253  -0.00658
   6        3S         -0.70810  -1.12061  -0.41550   0.35837   2.47750
   7        3PX         0.42880  -0.33187   0.08946   0.03986   0.16723
   8        3PY         0.22328   0.37661   0.35282  -0.00133  -0.32508
   9        3PZ        -0.49415  -0.04603   0.00793   0.09703   0.10219
  10        4S         -0.00757   1.49674   1.18525   0.17832   0.71017
  11        4PX         0.13923   0.33901   0.07605   0.14579   0.02239
  12        4PY        -0.04859  -0.44597  -0.47212   0.05386  -0.14628
  13        4PZ        -0.17187   0.20904  -0.15459  -0.03168   0.09304
  14        5XX        -0.31627  -0.03975  -0.13986  -0.13545  -1.98606
  15        5YY         0.33058   0.03062   0.09788  -0.16206  -2.07314
  16        5ZZ         0.14189  -0.13048  -0.16876  -0.13844  -2.09603
  17        5XY         0.54154  -0.13309  -0.01281  -0.00267   0.10680
  18        5XZ         0.43537   0.27730   0.01552   0.01713   0.22865
  19        5YZ        -0.71487   0.00609   0.15363   0.01751   0.09253
  20 2   H  1S         -0.42070   0.19684   0.08990   0.04207   0.30415
  21        2S         -0.34065   0.24712   0.00998  -0.02513  -0.18319
  22        3PX         0.26045   0.03228  -0.02294   0.00015  -0.14228
  23        3PY         0.18969  -0.12751  -0.03666  -0.02644  -0.20025
  24        3PZ        -0.48728   0.11314   0.03307   0.01301   0.28482
  25 3   H  1S          0.71260   0.13463   0.04643  -0.00183   0.30991
  26        2S          0.63033   0.12294   0.13102  -0.07128  -0.22930
  27        3PX         0.70696   0.06877  -0.00883   0.00791   0.26528
  28        3PY        -0.36998  -0.09931  -0.08950  -0.01188  -0.11962
  29        3PZ        -0.55764  -0.01951  -0.00259  -0.00903  -0.23228
  30 4   N  1S         -0.00326  -0.52155   0.12377   0.04610  -0.00169
  31        2S          0.00412   0.57402  -0.30573  -0.13108  -0.14436
  32        2PX         0.01236   0.07704   0.00389  -0.05296  -0.01845
  33        2PY        -0.03847  -0.04094  -0.01447   0.00647   0.06200
  34        2PZ        -0.02759   0.15094  -0.04624  -0.00910  -0.03315
  35        3S          0.03687   4.85743  -1.50888  -0.35881  -0.16235
  36        3PX        -0.03878  -0.15152   0.06866   0.08274  -0.08192
  37        3PY         0.08427   0.22688   0.28416  -0.06253  -0.10251
  38        3PZ         0.05517  -0.52301   0.37368   0.07334   0.02405
  39        4S         -0.95852  -4.10787   1.55524  -1.38055  -0.89251
  40        4PX        -0.05836   0.31686  -0.32944   0.02726   0.32027
  41        4PY         0.15062  -0.02495  -0.30605   0.06068  -0.21214
  42        4PZ         0.24854   0.58202  -0.31555   0.48921   0.29928
  43        5XX        -0.08600  -1.57554   0.45599   0.22282   0.11282
  44        5YY        -0.00490  -1.67704   0.46752   0.10794   0.07863
  45        5ZZ         0.07919  -1.62958   0.47055   0.13278   0.05002
  46        5XY         0.06361   0.01990  -0.00115   0.01106  -0.13365
  47        5XZ         0.03372  -0.02735   0.13205  -0.08580   0.14608
  48        5YZ         0.02952   0.00801   0.03358  -0.00731  -0.09051
  49 5   N  1S         -0.09433  -0.14229  -0.49821   0.03431   0.00604
  50        2S          0.13561   0.03467   0.61843  -0.01641  -0.15733
  51        2PX        -0.21783   0.07099   0.13466   0.00657  -0.05334
  52        2PY        -0.20109  -0.01244   0.00302   0.01348   0.06875
  53        2PZ         0.15161  -0.03370  -0.24485   0.02215   0.02077
  54        3S          1.33494   0.98109   4.64716  -0.20789  -0.27148
  55        3PX        -0.34831  -0.12248   0.38721  -0.04586   0.12237
  56        3PY        -0.18007   0.38958   0.67601  -0.06212  -0.02340
  57        3PZ         0.35871  -0.14293   0.34621   0.02909  -0.01757
  58        4S          0.76878   0.50673  -3.74039   1.23239  -0.52779
  59        4PX        -0.00565   0.30535  -0.52269   0.24483   0.07823
  60        4PY         0.05385  -0.01829  -0.69336   0.13266  -0.23087
  61        4PZ         0.37087   0.29988  -0.35057   0.19403  -0.12331
  62        5XX        -0.11874  -0.46870  -1.71370   0.10427   0.01257
  63        5YY        -0.13405  -0.38190  -1.66327   0.14024   0.32385
  64        5ZZ        -0.26479  -0.34076  -1.65452   0.11683   0.01318
  65        5XY         0.44802  -0.04652  -0.22093   0.01615   0.00571
  66        5XZ        -0.34934   0.20532   0.20741  -0.02883  -0.01268
  67        5YZ        -0.41670   0.15537   0.19197  -0.03204   0.04983
  68 6   H  1S         -0.61394   0.20439   0.43063  -0.04121  -0.02894
  69        2S         -0.76136   0.02912  -0.15154  -0.10624   0.18582
  70        3PX        -0.52216   0.08378   0.36397  -0.03508  -0.04428
  71        3PY        -0.25495   0.03516   0.23693  -0.01976  -0.04361
  72        3PZ         0.45651  -0.16114  -0.36387   0.04166   0.01064
  73 7   Cl 1S         -0.00002   0.01617   0.00625   0.16450  -0.01313
  74        2S         -0.00724  -0.08134  -0.02532  -0.82139   0.06582
  75        2PX         0.00268  -0.01167   0.00883  -0.01597   0.00423
  76        2PY        -0.00032   0.00135   0.00180  -0.00062  -0.00147
  77        2PZ        -0.00212  -0.00085  -0.00065   0.00466  -0.00105
  78        3S         -0.01359   0.52164   0.19214   5.30929  -0.42563
  79        3PX        -0.00946   0.12504  -0.07580   0.07395  -0.03269
  80        3PY         0.00529  -0.00342  -0.01424   0.00218   0.00887
  81        3PZ         0.00663  -0.02988   0.00938  -0.01819   0.00522
  82        4S          0.16813  -0.12964   0.18501   0.86702   0.08853
  83        4PX        -0.06132   0.21711  -0.10480  -0.24419  -0.01138
  84        4PY        -0.05776   0.04574  -0.01262   0.00546  -0.02305
  85        4PZ         0.02099  -0.09064   0.03414   0.03465   0.02740
  86        5S          0.19079   0.51617   0.02464  -0.36833  -0.04559
  87        5PX        -0.07684  -0.33228  -0.03761   0.15168  -0.02474
  88        5PY        -0.02770  -0.05775  -0.01790  -0.02385   0.07524
  89        5PZ         0.02634   0.13516  -0.02331  -0.00302  -0.08565
  90        6XX         0.00098  -0.32047  -0.05728  -2.47913   0.19030
  91        6YY        -0.01452  -0.23628  -0.06478  -2.47362   0.20558
  92        6ZZ        -0.00853  -0.22763  -0.07747  -2.48517   0.21013
  93        6XY         0.02283  -0.01149  -0.00158  -0.00416   0.00976
  94        6XZ        -0.01584  -0.00065  -0.01602   0.01386  -0.01569
  95        6YZ        -0.00769  -0.01272  -0.01319   0.00304   0.01148
          Condensed to atoms (all electrons):
              1          2          3          4          5          6
     1  C    5.125890   0.400040   0.386568   0.175558   0.182087  -0.020100
     2  H    0.400040   0.497501  -0.032044  -0.046519  -0.022941   0.002581
     3  H    0.386568  -0.032044   0.525170  -0.012091  -0.042994  -0.005831
     4  N    0.175558  -0.046519  -0.012091   7.141937  -0.054217  -0.030751
     5  N    0.182087  -0.022941  -0.042994  -0.054217   7.054253   0.298550
     6  H   -0.020100   0.002581  -0.005831  -0.030751   0.298550   0.410674
     7  Cl  -0.108519   0.007422   0.002038   0.037250  -0.037535   0.008818
              7
     1  C   -0.108519
     2  H    0.007422
     3  H    0.002038
     4  N    0.037250
     5  N   -0.037535
     6  H    0.008818
     7  Cl  17.069836
 Mulliken atomic charges:
              1
     1  C   -0.141525
     2  H    0.193961
     3  H    0.179184
     4  N   -0.211166
     5  N   -0.377203
     6  H    0.336059
     7  Cl   0.020690
 Sum of Mulliken atomic charges =   0.00000
 Mulliken charges with hydrogens summed into heavy atoms:
              1
     1  C    0.231620
     4  N   -0.211166
     5  N   -0.041144
     7  Cl   0.020690
 Sum of Mulliken charges with hydrogens summed into heavy atoms =   0.00000
 Electronic spatial extent (au):  <R**2>=            340.1691
 Charge=              0.0000 electrons
 Dipole moment (field-independent basis, Debye):
    X=             -2.8135    Y=              1.0780    Z=              0.2127  Tot=              3.0204
 Quadrupole moment (field-independent basis, Debye-Ang):
   XX=            -25.9287   YY=            -29.2321   ZZ=            -33.3911
   XY=             -0.1976   XZ=             -2.1098   YZ=             -1.7798
 Traceless Quadrupole moment (field-independent basis, Debye-Ang):
   XX=              3.5886   YY=              0.2852   ZZ=             -3.8739
   XY=             -0.1976   XZ=             -2.1098   YZ=             -1.7798
 Octapole moment (field-independent basis, Debye-Ang**2):
  XXX=             -6.4439  YYY=             -0.5889  ZZZ=             -0.9512  XYY=             -4.6066
  XXY=             -1.6722  XXZ=              2.4255  XZZ=              1.3352  YZZ=              2.2329
  YYZ=              1.3049  XYZ=              1.7130
 Hexadecapole moment (field-independent basis, Debye-Ang**3):
 XXXX=           -273.6076 YYYY=            -79.8604 ZZZZ=            -62.5709 XXXY=              6.9654
 XXXZ=            -12.8009 YYYX=              3.2211 YYYZ=             -4.0739 ZZZX=             -1.6031
 ZZZY=             -2.3172 XXYY=            -56.7564 XXZZ=            -60.8977 YYZZ=            -23.6074
 XXYZ=             -1.9366 YYXZ=             -2.7099 ZZXY=             -1.7163
 N-N= 1.550945952317D+02 E-N=-1.751332081131D+03  KE= 6.068653594922D+02
 Orbital energies and kinetic energies (alpha):
                                 1                 2
   1         O              -102.680505        136.881883
   2         O               -14.873564         22.031942
   3         O               -14.824214         22.028952
   4         O               -10.637222         15.935158
   5         O                -9.825432         21.654837
   6         O                -7.550539         20.591987
   7         O                -7.541906         20.622815
   8         O                -7.541867         20.622718
   9         O                -1.190818          1.849150
  10         O                -0.948812          2.654828
  11         O                -0.807259          2.104917
  12         O                -0.751451          1.861693
  13         O                -0.623708          1.279595
  14         O                -0.578420          1.691608
  15         O                -0.492202          1.609227
  16         O                -0.471475          1.678794
  17         O                -0.425254          1.825501
  18         O                -0.371870          2.221615
  19         O                -0.366640          2.089222
  20         O                -0.344756          2.196239
  21         V                -0.013144          2.064622
  22         V                 0.015218          0.316367
  23         V                 0.029927          0.309220
  24         V                 0.035651          0.314885
  25         V                 0.052420          0.284092
  26         V                 0.092245          0.717481
  27         V                 0.099751          0.425525
  28         V                 0.107175          0.382324
  29         V                 0.114658          0.799966
  30         V                 0.130368          0.649946
  31         V                 0.144170          0.626843
  32         V                 0.152390          0.631597
  33         V                 0.171943          0.512095
  34         V                 0.180557          1.111133
  35         V                 0.192591          0.812749
  36         V                 0.213639          0.803544
  37         V                 0.235374          1.026336
  38         V                 0.265224          0.671161
  39         V                 0.267470          0.834857
  40         V                 0.284477          1.269174
  41         V                 0.309851          1.212361
  42         V                 0.326903          1.724368
  43         V                 0.367956          1.235026
  44         V                 0.591928          2.528368
  45         V                 0.619311          2.417149
  46         V                 0.646570          2.776805
  47         V                 0.661397          2.851731
  48         V                 0.692765          2.288380
  49         V                 0.735261          2.286911
  50         V                 0.759745          2.377878
  51         V                 0.798324          2.511761
  52         V                 0.865150          2.480253
  53         V                 0.881669          2.605518
  54         V                 0.915831          2.446925
  55         V                 0.937637          2.591392
  56         V                 0.952924          2.626223
  57         V                 0.986204          2.639701
  58         V                 0.998056          2.723372
  59         V                 1.037431          2.484536
  60         V                 1.042997          2.981026
  61         V                 1.063890          2.861357
  62         V                 1.103134          2.490521
  63         V                 1.147077          2.470197
  64         V                 1.184384          2.820659
  65         V                 1.217827          2.569572
  66         V                 1.411369          2.470332
  67         V                 1.429633          2.528672
  68         V                 1.442357          2.627936
  69         V                 1.615890          2.818143
  70         V                 1.700648          2.899039
  71         V                 1.767182          3.033110
  72         V                 1.869566          3.071564
  73         V                 1.958255          3.244748
  74         V                 1.993516          3.322615
  75         V                 2.060148          3.227497
  76         V                 2.107964          3.288206
  77         V                 2.171730          3.812123
  78         V                 2.255663          3.685043
  79         V                 2.321624          3.570000
  80         V                 2.394654          3.320355
  81         V                 2.409032          3.478967
  82         V                 2.562934          4.119813
  83         V                 2.654905          3.773034
  84         V                 2.698199          4.024139
  85         V                 2.767529          4.152033
  86         V                 2.839171          4.080318
  87         V                 2.842626          3.960367
  88         V                 2.900851          4.284470
  89         V                 3.263829          5.254256
  90         V                 3.407397          5.308859
  91         V                 3.466999          5.358720
  92         V                 3.984419         10.243988
  93         V                 4.105053          9.967732
  94         V                 4.404003         14.682023
  95         V                 4.454898         10.143933
 Total kinetic energy from orbitals= 6.068653594922D+02

 Test job not archived.
 1\1\GINC-NODE116\SP\RM062X\6-31+G(d,p)\C1H3Cl1N2\VSC40473\06-Nov-2012\
 0\\#m062x/6-31+g** gfinput iop(6/7=3)\\comment\\0,1\C,0,-0.666695,-1.4
 74928,-0.001616\H,0,-1.213098,-1.326243,-0.928259\H,0,-1.111468,-2.163
 012,0.715667\N,0,-0.003671,-0.329544,0.609341\N,0,0.768535,-1.338137,-
 0.119441\H,0,1.272593,-1.849756,0.607962\Cl,0,-0.153269,1.170904,-0.38
 7249\\Version=EM64L-G09RevA.02\State=1-A\HF=-609.4102564\RMSD=5.648e-0
 9\Dipole=-0.3580155,-1.1077227,0.2385378\Quadrupole=-0.1657976,2.01705
 69,-1.8512592,0.4565214,1.6862936,-2.2690902\PG=C01 [X(C1H3Cl1N2)]\\@


 Money is a good servant but a bad master.
                        -- French Proverb
 Job cpu time:  0 days  0 hours  0 minutes 43.0 seconds.
 File lengths (MBytes):  RWF=     10 Int=      0 D2E=      0 Chk=      1 Scr=      1
 Normal termination of Gaussian 09 at Tue Nov  6 10:46:57 2012.
